<?xml version="1.0"?>
<VTKFile type="UnstructuredGrid"  version="0.1"  >
<UnstructuredGrid>
<Piece  NumberOfPoints="1617" NumberOfCells="3072">
<Points>
<DataArray  type="Float64"  NumberOfComponents="3"  format="ascii">0 0 0  0.03125 0 0  0.0625 0 0  0.09375 0 0  0.125 0 0  0.15625 0 0  0.1875 0 0  0.21875 0 0  0.25 0 0  0.28125 0 0  0.3125 0 0  0.34375 0 0  0.375 0 0  0.40625 0 0  0.4375 0 0  0.46875 0 0  0.5 0 0  0.53125 0 0  0.5625 0 0  0.59375 0 0  0.625 0 0  0.65625 0 0  0.6875 0 0  0.71875 0 0  0.75 0 0  0.78125 0 0  0.8125 0 0  0.84375 0 0  0.875 0 0  0.90625 0 0  0.9375 0 0  0.96875 0 0  1 0 0  1.03125 0 0  1.0625 0 0  1.09375 0 0  1.125 0 0  1.15625 0 0  1.1875 0 0  1.21875 0 0  1.25 0 0  1.28125 0 0  1.3125 0 0  1.34375 0 0  1.375 0 0  1.40625 0 0  1.4375 0 0  1.46875 0 0  1.5 0 0  0 0.03125 0  0.03125 0.03125 0  0.0625 0.03125 0  0.09375 0.03125 0  0.125 0.03125 0  0.15625 0.03125 0  0.1875 0.03125 0  0.21875 0.03125 0  0.25 0.03125 0  0.28125 0.03125 0  0.3125 0.03125 0  0.34375 0.03125 0  0.375 0.03125 0  0.40625 0.03125 0  0.4375 0.03125 0  0.46875 0.03125 0  0.5 0.03125 0  0.53125 0.03125 0  0.5625 0.03125 0  0.59375 0.03125 0  0.625 0.03125 0  0.65625 0.03125 0  0.6875 0.03125 0  0.71875 0.03125 0  0.75 0.03125 0  0.78125 0.03125 0  0.8125 0.03125 0  0.84375 0.03125 0  0.875 0.03125 0  0.90625 0.03125 0  0.9375 0.03125 0  0.96875 0.03125 0  1 0.03125 0  1.03125 0.03125 0  1.0625 0.03125 0  1.09375 0.03125 0  1.125 0.03125 0  1.15625 0.03125 0  1.1875 0.03125 0  1.21875 0.03125 0  1.25 0.03125 0  1.28125 0.03125 0  1.3125 0.03125 0  1.34375 0.03125 0  1.375 0.03125 0  1.40625 0.03125 0  1.4375 0.03125 0  1.46875 0.03125 0  1.5 0.03125 0  0 0.0625 0  0.03125 0.0625 0  0.0625 0.0625 0  0.09375 0.0625 0  0.125 0.0625 0  0.15625 0.0625 0  0.1875 0.0625 0  0.21875 0.0625 0  0.25 0.0625 0  0.28125 0.0625 0  0.3125 0.0625 0  0.34375 0.0625 0  0.375 0.0625 0  0.40625 0.0625 0  0.4375 0.0625 0  0.46875 0.0625 0  0.5 0.0625 0  0.53125 0.0625 0  0.5625 0.0625 0  0.59375 0.0625 0  0.625 0.0625 0  0.65625 0.0625 0  0.6875 0.0625 0  0.71875 0.0625 0  0.75 0.0625 0  0.78125 0.0625 0  0.8125 0.0625 0  0.84375 0.0625 0  0.875 0.0625 0  0.90625 0.0625 0  0.9375 0.0625 0  0.96875 0.0625 0  1 0.0625 0  1.03125 0.0625 0  1.0625 0.0625 0  1.09375 0.0625 0  1.125 0.0625 0  1.15625 0.0625 0  1.1875 0.0625 0  1.21875 0.0625 0  1.25 0.0625 0  1.28125 0.0625 0  1.3125 0.0625 0  1.34375 0.0625 0  1.375 0.0625 0  1.40625 0.0625 0  1.4375 0.0625 0  1.46875 0.0625 0  1.5 0.0625 0  0 0.09375 0  0.03125 0.09375 0  0.0625 0.09375 0  0.09375 0.09375 0  0.125 0.09375 0  0.15625 0.09375 0  0.1875 0.09375 0  0.21875 0.09375 0  0.25 0.09375 0  0.28125 0.09375 0  0.3125 0.09375 0  0.34375 0.09375 0  0.375 0.09375 0  0.40625 0.09375 0  0.4375 0.09375 0  0.46875 0.09375 0  0.5 0.09375 0  0.53125 0.09375 0  0.5625 0.09375 0  0.59375 0.09375 0  0.625 0.09375 0  0.65625 0.09375 0  0.6875 0.09375 0  0.71875 0.09375 0  0.75 0.09375 0  0.78125 0.09375 0  0.8125 0.09375 0  0.84375 0.09375 0  0.875 0.09375 0  0.90625 0.09375 0  0.9375 0.09375 0  0.96875 0.09375 0  1 0.09375 0  1.03125 0.09375 0  1.0625 0.09375 0  1.09375 0.09375 0  1.125 0.09375 0  1.15625 0.09375 0  1.1875 0.09375 0  1.21875 0.09375 0  1.25 0.09375 0  1.28125 0.09375 0  1.3125 0.09375 0  1.34375 0.09375 0  1.375 0.09375 0  1.40625 0.09375 0  1.4375 0.09375 0  1.46875 0.09375 0  1.5 0.09375 0  0 0.125 0  0.03125 0.125 0  0.0625 0.125 0  0.09375 0.125 0  0.125 0.125 0  0.15625 0.125 0  0.1875 0.125 0  0.21875 0.125 0  0.25 0.125 0  0.28125 0.125 0  0.3125 0.125 0  0.34375 0.125 0  0.375 0.125 0  0.40625 0.125 0  0.4375 0.125 0  0.46875 0.125 0  0.5 0.125 0  0.53125 0.125 0  0.5625 0.125 0  0.59375 0.125 0  0.625 0.125 0  0.65625 0.125 0  0.6875 0.125 0  0.71875 0.125 0  0.75 0.125 0  0.78125 0.125 0  0.8125 0.125 0  0.84375 0.125 0  0.875 0.125 0  0.90625 0.125 0  0.9375 0.125 0  0.96875 0.125 0  1 0.125 0  1.03125 0.125 0  1.0625 0.125 0  1.09375 0.125 0  1.125 0.125 0  1.15625 0.125 0  1.1875 0.125 0  1.21875 0.125 0  1.25 0.125 0  1.28125 0.125 0  1.3125 0.125 0  1.34375 0.125 0  1.375 0.125 0  1.40625 0.125 0  1.4375 0.125 0  1.46875 0.125 0  1.5 0.125 0  0 0.15625 0  0.03125 0.15625 0  0.0625 0.15625 0  0.09375 0.15625 0  0.125 0.15625 0  0.15625 0.15625 0  0.1875 0.15625 0  0.21875 0.15625 0  0.25 0.15625 0  0.28125 0.15625 0  0.3125 0.15625 0  0.34375 0.15625 0  0.375 0.15625 0  0.40625 0.15625 0  0.4375 0.15625 0  0.46875 0.15625 0  0.5 0.15625 0  0.53125 0.15625 0  0.5625 0.15625 0  0.59375 0.15625 0  0.625 0.15625 0  0.65625 0.15625 0  0.6875 0.15625 0  0.71875 0.15625 0  0.75 0.15625 0  0.78125 0.15625 0  0.8125 0.15625 0  0.84375 0.15625 0  0.875 0.15625 0  0.90625 0.15625 0  0.9375 0.15625 0  0.96875 0.15625 0  1 0.15625 0  1.03125 0.15625 0  1.0625 0.15625 0  1.09375 0.15625 0  1.125 0.15625 0  1.15625 0.15625 0  1.1875 0.15625 0  1.21875 0.15625 0  1.25 0.15625 0  1.28125 0.15625 0  1.3125 0.15625 0  1.34375 0.15625 0  1.375 0.15625 0  1.40625 0.15625 0  1.4375 0.15625 0  1.46875 0.15625 0  1.5 0.15625 0  0 0.1875 0  0.03125 0.1875 0  0.0625 0.1875 0  0.09375 0.1875 0  0.125 0.1875 0  0.15625 0.1875 0  0.1875 0.1875 0  0.21875 0.1875 0  0.25 0.1875 0  0.28125 0.1875 0  0.3125 0.1875 0  0.34375 0.1875 0  0.375 0.1875 0  0.40625 0.1875 0  0.4375 0.1875 0  0.46875 0.1875 0  0.5 0.1875 0  0.53125 0.1875 0  0.5625 0.1875 0  0.59375 0.1875 0  0.625 0.1875 0  0.65625 0.1875 0  0.6875 0.1875 0  0.71875 0.1875 0  0.75 0.1875 0  0.78125 0.1875 0  0.8125 0.1875 0  0.84375 0.1875 0  0.875 0.1875 0  0.90625 0.1875 0  0.9375 0.1875 0  0.96875 0.1875 0  1 0.1875 0  1.03125 0.1875 0  1.0625 0.1875 0  1.09375 0.1875 0  1.125 0.1875 0  1.15625 0.1875 0  1.1875 0.1875 0  1.21875 0.1875 0  1.25 0.1875 0  1.28125 0.1875 0  1.3125 0.1875 0  1.34375 0.1875 0  1.375 0.1875 0  1.40625 0.1875 0  1.4375 0.1875 0  1.46875 0.1875 0  1.5 0.1875 0  0 0.21875 0  0.03125 0.21875 0  0.0625 0.21875 0  0.09375 0.21875 0  0.125 0.21875 0  0.15625 0.21875 0  0.1875 0.21875 0  0.21875 0.21875 0  0.25 0.21875 0  0.28125 0.21875 0  0.3125 0.21875 0  0.34375 0.21875 0  0.375 0.21875 0  0.40625 0.21875 0  0.4375 0.21875 0  0.46875 0.21875 0  0.5 0.21875 0  0.53125 0.21875 0  0.5625 0.21875 0  0.59375 0.21875 0  0.625 0.21875 0  0.65625 0.21875 0  0.6875 0.21875 0  0.71875 0.21875 0  0.75 0.21875 0  0.78125 0.21875 0  0.8125 0.21875 0  0.84375 0.21875 0  0.875 0.21875 0  0.90625 0.21875 0  0.9375 0.21875 0  0.96875 0.21875 0  1 0.21875 0  1.03125 0.21875 0  1.0625 0.21875 0  1.09375 0.21875 0  1.125 0.21875 0  1.15625 0.21875 0  1.1875 0.21875 0  1.21875 0.21875 0  1.25 0.21875 0  1.28125 0.21875 0  1.3125 0.21875 0  1.34375 0.21875 0  1.375 0.21875 0  1.40625 0.21875 0  1.4375 0.21875 0  1.46875 0.21875 0  1.5 0.21875 0  0 0.25 0  0.03125 0.25 0  0.0625 0.25 0  0.09375 0.25 0  0.125 0.25 0  0.15625 0.25 0  0.1875 0.25 0  0.21875 0.25 0  0.25 0.25 0  0.28125 0.25 0  0.3125 0.25 0  0.34375 0.25 0  0.375 0.25 0  0.40625 0.25 0  0.4375 0.25 0  0.46875 0.25 0  0.5 0.25 0  0.53125 0.25 0  0.5625 0.25 0  0.59375 0.25 0  0.625 0.25 0  0.65625 0.25 0  0.6875 0.25 0  0.71875 0.25 0  0.75 0.25 0  0.78125 0.25 0  0.8125 0.25 0  0.84375 0.25 0  0.875 0.25 0  0.90625 0.25 0  0.9375 0.25 0  0.96875 0.25 0  1 0.25 0  1.03125 0.25 0  1.0625 0.25 0  1.09375 0.25 0  1.125 0.25 0  1.15625 0.25 0  1.1875 0.25 0  1.21875 0.25 0  1.25 0.25 0  1.28125 0.25 0  1.3125 0.25 0  1.34375 0.25 0  1.375 0.25 0  1.40625 0.25 0  1.4375 0.25 0  1.46875 0.25 0  1.5 0.25 0  0 0.28125 0  0.03125 0.28125 0  0.0625 0.28125 0  0.09375 0.28125 0  0.125 0.28125 0  0.15625 0.28125 0  0.1875 0.28125 0  0.21875 0.28125 0  0.25 0.28125 0  0.28125 0.28125 0  0.3125 0.28125 0  0.34375 0.28125 0  0.375 0.28125 0  0.40625 0.28125 0  0.4375 0.28125 0  0.46875 0.28125 0  0.5 0.28125 0  0.53125 0.28125 0  0.5625 0.28125 0  0.59375 0.28125 0  0.625 0.28125 0  0.65625 0.28125 0  0.6875 0.28125 0  0.71875 0.28125 0  0.75 0.28125 0  0.78125 0.28125 0  0.8125 0.28125 0  0.84375 0.28125 0  0.875 0.28125 0  0.90625 0.28125 0  0.9375 0.28125 0  0.96875 0.28125 0  1 0.28125 0  1.03125 0.28125 0  1.0625 0.28125 0  1.09375 0.28125 0  1.125 0.28125 0  1.15625 0.28125 0  1.1875 0.28125 0  1.21875 0.28125 0  1.25 0.28125 0  1.28125 0.28125 0  1.3125 0.28125 0  1.34375 0.28125 0  1.375 0.28125 0  1.40625 0.28125 0  1.4375 0.28125 0  1.46875 0.28125 0  1.5 0.28125 0  0 0.3125 0  0.03125 0.3125 0  0.0625 0.3125 0  0.09375 0.3125 0  0.125 0.3125 0  0.15625 0.3125 0  0.1875 0.3125 0  0.21875 0.3125 0  0.25 0.3125 0  0.28125 0.3125 0  0.3125 0.3125 0  0.34375 0.3125 0  0.375 0.3125 0  0.40625 0.3125 0  0.4375 0.3125 0  0.46875 0.3125 0  0.5 0.3125 0  0.53125 0.3125 0  0.5625 0.3125 0  0.59375 0.3125 0  0.625 0.3125 0  0.65625 0.3125 0  0.6875 0.3125 0  0.71875 0.3125 0  0.75 0.3125 0  0.78125 0.3125 0  0.8125 0.3125 0  0.84375 0.3125 0  0.875 0.3125 0  0.90625 0.3125 0  0.9375 0.3125 0  0.96875 0.3125 0  1 0.3125 0  1.03125 0.3125 0  1.0625 0.3125 0  1.09375 0.3125 0  1.125 0.3125 0  1.15625 0.3125 0  1.1875 0.3125 0  1.21875 0.3125 0  1.25 0.3125 0  1.28125 0.3125 0  1.3125 0.3125 0  1.34375 0.3125 0  1.375 0.3125 0  1.40625 0.3125 0  1.4375 0.3125 0  1.46875 0.3125 0  1.5 0.3125 0  0 0.34375 0  0.03125 0.34375 0  0.0625 0.34375 0  0.09375 0.34375 0  0.125 0.34375 0  0.15625 0.34375 0  0.1875 0.34375 0  0.21875 0.34375 0  0.25 0.34375 0  0.28125 0.34375 0  0.3125 0.34375 0  0.34375 0.34375 0  0.375 0.34375 0  0.40625 0.34375 0  0.4375 0.34375 0  0.46875 0.34375 0  0.5 0.34375 0  0.53125 0.34375 0  0.5625 0.34375 0  0.59375 0.34375 0  0.625 0.34375 0  0.65625 0.34375 0  0.6875 0.34375 0  0.71875 0.34375 0  0.75 0.34375 0  0.78125 0.34375 0  0.8125 0.34375 0  0.84375 0.34375 0  0.875 0.34375 0  0.90625 0.34375 0  0.9375 0.34375 0  0.96875 0.34375 0  1 0.34375 0  1.03125 0.34375 0  1.0625 0.34375 0  1.09375 0.34375 0  1.125 0.34375 0  1.15625 0.34375 0  1.1875 0.34375 0  1.21875 0.34375 0  1.25 0.34375 0  1.28125 0.34375 0  1.3125 0.34375 0  1.34375 0.34375 0  1.375 0.34375 0  1
[...]
<PointData  Vectors="f_97"> 
<DataArray  type="Float64"  Name="f_97"  NumberOfComponents="3" format="ascii">9.9952494467522357e-01 -3.0820203958050067e-02 0.0000000000000000e+00  9.9946633125606177e-01 -3.2665772385911160e-02 0.0000000000000000e+00  9.9939943457613578e-01 -3.4652130799143331e-02 0.0000000000000000e+00  9.9932304263650062e-01 -3.6789352477954708e-02 0.0000000000000000e+00  9.9923579417713482e-01 -3.9087435771761013e-02 0.0000000000000000e+00  9.9913617831726231e-01 -4.1555952372631572e-02 0.0000000000000000e+00  9.9902254468247365e-01 -4.4203565650039578e-02 0.0000000000000000e+00  9.9889312946677200e-01 -4.7037388363941182e-02 0.0000000000000000e+00  9.9874610455641799e-01 -5.0062147710629709e-02 0.0000000000000000e+00  9.9857965856826258e-01 -5.3279128124567691e-02 0.0000000000000000e+00  9.9839212004731270e-01 -5.6684871239613646e-02 0.0000000000000000e+00  9.9818213344503937e-01 -6.0269631416900928e-02 0.0000000000000000e+00  9.9794889679219467e-01 -6.4015618338513283e-02 0.0000000000000000e+00  9.9769246471864492e-01 -6.7895109129123485e-02 0.0000000000000000e+00  9.9741410996635682e-01 -7.1868583122539048e-02 0.0000000000000000e+00  9.9711671940479885e-01 -7.5883119884681841e-02 0.0000000000000000e+00  9.9680517673030999e-01 -7.9871394401729370e-02 0.0000000000000000e+00  9.9648665625880273e-01 -8.3751679972235454e-02 0.0000000000000000e+00  9.9617072755224512e-01 -8.7429294678918176e-02 0.0000000000000000e+00  9.9586916083258659e-01 -9.0799859595822083e-02 0.0000000000000000e+00  9.9559534254605253e-01 -9.3754540693396241e-02 0.0000000000000000e+00  9.9536326992211810e-01 -9.6187113949688499e-02 0.0000000000000000e+00  9.9518619153113730e-01 -9.8002266227734336e-02 0.0000000000000000e+00  9.9507507667143824e-01 -9.9124123135347991e-02 0.0000000000000000e+00  9.9503719020999926e-01 -9.9503719021000026e-02 0.0000000000000000e+00  9.9507507667143880e-01 -9.9124123135347977e-02 0.0000000000000000e+00  9.9518619153113763e-01 -9.8002266227734308e-02 0.0000000000000000e+00  9.9536326992211777e-01 -9.6187113949688499e-02 0.0000000000000000e+00  9.9559534254605164e-01 -9.3754540693396157e-02 0.0000000000000000e+00  9.9586916083258614e-01 -9.0799859595822041e-02 0.0000000000000000e+00  9.9617072755224390e-01 -8.7429294678918190e-02 0.0000000000000000e+00  9.9648665625880239e-01 -8.3751679972235440e-02 0.0000000000000000e+00  9.9680517673030977e-01 -7.9871394401729232e-02 0.0000000000000000e+00  9.9711671940479885e-01 -7.5883119884681965e-02 0.0000000000000000e+00  9.9741410996635704e-01 -7.1868583122539006e-02 0.0000000000000000e+00  9.9769246471864537e-01 -6.7895109129123457e-02 0.0000000000000000e+00  9.9794889679219489e-01 -6.4015618338513311e-02 0.0000000000000000e+00  9.9818213344504048e-01 -6.0269631416901011e-02 0.0000000000000000e+00  9.9839212004731404e-01 -5.6684871239613611e-02 0.0000000000000000e+00  9.9857965856826225e-01 -5.3279128124567685e-02 0.0000000000000000e+00  9.9874610455641810e-01 -5.0062147710629890e-02 0.0000000000000000e+00  9.9889312946677178e-01 -4.7037388363940988e-02 0.0000000000000000e+00  9.9902254468247231e-01 -4.4203565650039675e-02 0.0000000000000000e+00  9.9913617831726209e-01 -4.1555952372631433e-02 0.0000000000000000e+00  9.9923579417713426e-01 -3.9087435771761027e-02 0.0000000000000000e+00  9.9932304263650085e-01 -3.6789352477954798e-02 0.0000000000000000e+00  9.9939943457613567e-01 -3.4652130799143137e-02 0.0000000000000000e+00  9.9946633125606221e-01 -3.2665772385911312e-02 0.0000000000000000e+00  9.9952494467521924e-01 -3.0820203958049998e-02 0.0000000000000000e+00  9.9954935916173981e-01 -3.0017971273477589e-02 0.0000000000000000e+00  9.9949138664215464e-01 -3.1889936158009016e-02 0.0000000000000000e+00  9.9942473722099967e-01 -3.3914519468158197e-02 0.0000000000000000e+00  9.9934802663201616e-01 -3.6104316455424314e-02 0.0000000000000000e+00  9.9925966797750976e-01 -3.8472275127624363e-02 0.0000000000000000e+00  9.9915785829714898e-01 -4.1031380711272242e-02 0.0000000000000000e+00  9.9904057404898028e-01 -4.3794193723655665e-02 0.0000000000000000e+00  9.9890558185595957e-01 -4.6772198334327206e-02 0.0000000000000000e+00  9.9875047346113033e-01 -4.9974911317454400e-02 0.0000000000000000e+00  9.9857273691738047e-01 -5.3408698592559416e-02 0.0000000000000000e+00  9.9836987929650267e-01 -5.7075249570243812e-02 0.0000000000000000e+00  9.9813961889379765e-01 -6.0969674384592470e-02 0.0000000000000000e+00  9.9788016563020687e-01 -6.5078222485321455e-02 0.0000000000000000e+00  9.9759060484928130e-01 -6.9375681016217119e-02 0.0000000000000000e+00  9.9727138882174748e-01 -7.3822605193546414e-02 0.0000000000000000e+00  9.9692491845511189e-01 -7.8362663069134628e-02 0.0000000000000000e+00  9.9655616242182188e-01 -8.2920535086976457e-02 0.0000000000000000e+00  9.9617321331530184e-01 -8.7400967231978710e-02 0.0000000000000000e+00  9.9578762899722184e-01 -9.1689682822602994e-02 0.0000000000000000e+00  9.9541437078824413e-01 -9.5656836808791765e-02 0.0000000000000000e+00  9.9507115654596046e-01 -9.9163468123615955e-02 0.0000000000000000e+00  9.9477712395175921e-01 -1.0207092466655478e-01 0.0000000000000000e+00  9.9455085735928883e-01 -1.0425254014134340e-01 0.0000000000000000e+00  9.9440804207927236e-01 -1.0560608812036673e-01 0.0000000000000000e+00  9.9435920055193838e-01 -1.0606498139220688e-01 0.0000000000000000e+00  9.9440804207927169e-01 -1.0560608812036668e-01 0.0000000000000000e+00  9.9455085735928828e-01 -1.0425254014134341e-01 0.0000000000000000e+00  9.9477712395175899e-01 -1.0207092466655478e-01 0.0000000000000000e+00  9.9507115654596034e-01 -9.9163468123615886e-02 0.0000000000000000e+00  9.9541437078824291e-01 -9.5656836808791765e-02 0.0000000000000000e+00  9.9578762899722129e-01 -9.1689682822602897e-02 0.0000000000000000e+00  9.9617321331530151e-01 -8.7400967231978696e-02 0.0000000000000000e+00  9.9655616242182199e-01 -8.2920535086976388e-02 0.0000000000000000e+00  9.9692491845511189e-01 -7.8362663069134600e-02 0.0000000000000000e+00  9.9727138882174726e-01 -7.3822605193546373e-02 0.0000000000000000e+00  9.9759060484928119e-01 -6.9375681016217189e-02 0.0000000000000000e+00  9.9788016563020698e-01 -6.5078222485321510e-02 0.0000000000000000e+00  9.9813961889379832e-01 -6.0969674384592436e-02 0.0000000000000000e+00  9.9836987929650367e-01 -5.7075249570243715e-02 0.0000000000000000e+00  9.9857273691738080e-01 -5.3408698592559180e-02 0.0000000000000000e+00  9.9875047346113033e-01 -4.9974911317454372e-02 0.0000000000000000e+00  9.9890558185596035e-01 -4.6772198334327088e-02 0.0000000000000000e+00  9.9904057404897961e-01 -4.3794193723655568e-02 0.0000000000000000e+00  9.9915785829714843e-01 -4.1031380711272221e-02 0.0000000000000000e+00  9.9925966797750976e-01 -3.8472275127624328e-02 0.0000000000000000e+00  9.9934802663201627e-01 -3.6104316455424203e-02 0.0000000000000000e+00  9.9942473722099889e-01 -3.3914519468158134e-02 0.0000000000000000e+00  9.9949138664215453e-01 -3.1889936158008898e-02 0.0000000000000000e+00  9.9954935916173815e-01 -3.0017971273477616e-02 0.0000000000000000e+00  9.9957722837046337e-01 -2.9075153021831800e-02 0.0000000000000000e+00  9.9952057990454157e-01 -3.0961433224375768e-02 0.0000000000000000e+00  9.9945496914116760e-01 -3.3011583710061111e-02 0.0000000000000000e+00  9.9937884583436165e-01 -3.5240920799522429e-02 0.0000000000000000e+00  9.9929039763109251e-01 -3.7665650164471362e-02 0.0000000000000000e+00  9.9918751921289539e-01 -4.0302623353801616e-02 0.0000000000000000e+00  9.9906778684251374e-01 -4.3168938991137759e-02 0.0000000000000000e+00  9.9892844504404887e-01 -4.6281331894156445e-02 0.0000000000000000e+00  9.9876641572290592e-01 -4.9655279921062362e-02 0.0000000000000000e+00  9.9857834478500518e-01 -5.3303745895178813e-02 0.0000000000000000e+00  9.9836070717108905e-01 -5.7235464328172621e-02 0.0000000000000000e+00  9.9810999761025887e-01 -6.1452686438172727e-02 0.0000000000000000e+00  9.9782303981316611e-01 -6.5948322329166004e-02 0.0000000000000000e+00  9.9749744826167364e-01 -7.0702480235625073e-02 0.0000000000000000e+00  9.9713226916584641e-01 -7.5678516027914977e-02 0.0000000000000000e+00  9.9672880345896409e-01 -8.0818886129917139e-02 0.0000000000000000e+00  9.9629156715338152e-01 -8.6041345985977749e-02 0.0000000000000000e+00  9.9582926864645482e-01 -9.1236328877732156e-02 0.0000000000000000e+00  9.9535558507332655e-01 -9.6266605130516450e-02 0.0000000000000000e+00  9.9488942682736781e-01 -1.0097043323235763e-01 0.0000000000000000e+00  9.9445434163296653e-01 -1.0516920845647758e-01 0.0000000000000000e+00  9.9407679163452023e-01 -1.0867995368805063e-01 0.0000000000000000e+00  9.9378328296603280e-01 -1.1133187547721016e-01 0.0000000000000000e+00  9.9359671057401688e-01 -1.1298485180107762e-01 0.0000000000000000e+00  9.9353267265641376e-01 -1.1354659116073312e-01 0.0000000000000000e+00  9.9359671057401644e-01 -1.1298485180107760e-01 0.0000000000000000e+00  9.9378328296603324e-01 -1.1133187547721027e-01 0.0000000000000000e+00  9.9407679163452034e-01 -1.0867995368805064e-01 0.0000000000000000e+00  9.9445434163296620e-01 -1.0516920845647758e-01 0.0000000000000000e+00  9.9488942682736758e-01 -1.0097043323235763e-01 0.0000000000000000e+00  9.9535558507332667e-01 -9.6266605130516492e-02 0.0000000000000000e+00  9.9582926864645449e-01 -9.1236328877732240e-02 0.0000000000000000e+00  9.9629156715338085e-01 -8.6041345985977666e-02 0.0000000000000000e+00  9.9672880345896409e-01 -8.0818886129917084e-02 0.0000000000000000e+00  9.9713226916584707e-01 -7.5678516027914824e-02 0.0000000000000000e+00  9.9749744826167308e-01 -7.0702480235624865e-02 0.0000000000000000e+00  9.9782303981316611e-01 -6.5948322329165893e-02 0.0000000000000000e+00  9.9810999761025931e-01 -6.1452686438172553e-02 0.0000000000000000e+00  9.9836070717108949e-01 -5.7235464328172357e-02 0.0000000000000000e+00  9.9857834478500518e-01 -5.3303745895178847e-02 0.0000000000000000e+00  9.9876641572290592e-01 -4.9655279921062341e-02 0.0000000000000000e+00  9.9892844504404921e-01 -4.6281331894156445e-02 0.0000000000000000e+00  9.9906778684251352e-01 -4.3168938991137759e-02 0.0000000000000000e+00  9.9918751921289595e-01 -4.0302623353801567e-02 0.0000000000000000e+00  9.9929039763109218e-01 -3.7665650164471348e-02 0.0000000000000000e+00  9.9937884583436121e-01 -3.5240920799522422e-02 0.0000000000000000e+00  9.9945496914116772e-01 -3.3011583710061278e-02 0.0000000000000000e+00  9.9952057990454146e-01 -3.0961433224375758e-02 0.0000000000000000e+00  9.9957722837046126e-01 -2.9075153021831786e-02 0.0000000000000000e+00  9.9960840435604736e-01 -2.7982815097444432e-02 0.0000000000000000e+00  9.9955381944010568e-01 -2.9869081718639112e-02 0.0000000000000000e+00  9.9949012576465135e-01 -3.1929429982078872e-02 0.0000000000000000e+00  9.9941562391683558e-01 -3.4182022628000228e-02 0.0000000000000000e+00  9.9932828932493634e-01 -3.6646557204128710e-02 0.0000000000000000e+00  9.9922571962670403e-01 -3.9344138528047481e-02 0.0000000000000000e+00  9.9910508147912158e-01 -4.2296999451694794e-02 0.0000000000000000e+00  9.9896306294682735e-01 -4.5528000921541328e-02 0.0000000000000000e+00  9.9879584203423299e-01 -4.9059819966502695e-02 0.0000000000000000e+00  9.9859908842489109e-01 -5.2913708970310815e-02 0.0000000000000000e+00  9.9836802450238804e-01 -5.7107684694950131e-02 0.0000000000000000e+00  9.9809758327994114e-01 -6.1653988117230010e-02 0.0000000000000000e+00  9.9778271393123974e-01 -6.6555659263718314e-02 0.0000000000000000e+00  9.9741889701748865e-01 -7.1802116072125707e-02 0.0000000000000000e+00  9.9700293442547283e-01 -7.7363743103698646e-02 0.0000000000000000e+00  9.9653406157841329e-01 -8.3185720613880201e-02 0.0000000000000000e+00  9.9601537478451863e-01 -8.9181686420881090e-02 0.0000000000000000e+00  9.9545545722028528e-01 -9.5228318741704621e-02 0.0000000000000000e+00  9.9486991736599062e-01 -1.0116248079306193e-01 0.0000000000000000e+00  9.9428235120674113e-01 -1.0678298590511960e-01 0.0000000000000000e+00  9.9372408689997249e-01 -1.1185901445495937e-01 0.0000000000000000e+00  9.9323210487677760e-01 -1.1614639831722960e-01 0.0000000000000000e+00  9.9284488256322523e-01 -1.1941121876956906e-01 0.0000000000000000e+00  9.9259660668853034e-01 -1.2145771441301509e-01 0.0000000000000000e+00  9.9251101091364013e-01 -1.2215520134321746e-01 0.0000000000000000e+00  9.9259660668853000e-01 -1.2145771441301519e-01 0.0000000000000000e+00  9.9284488256322501e-01 -1.1941121876956892e-01 0.0000000000000000e+00  9.9323210487677738e-01 -1.1614639831722956e-01 0.0000000000000000e+00  9.9372408689997227e-01 -1.1185901445495929e-01 0.0000000000000000e+00  9.9428235120674124e-01 -1.0678298590511957e-01 0.0000000000000000e+00  9.9486991736598995e-01 -1.0116248079306173e-01 0.0000000000000000e+00  9.9545545722028528e-01 -9.5228318741704593e-02 0.0000000000000000e+00  9.9601537478451874e-01 -8.9181686420881243e-02 0.0000000000000000e+00  9.9653406157841296e-01 -8.3185720613880243e-02 0.0000000000000000e+00  9.9700293442547250e-01 -7.7363743103698604e-02 0.0000000000000000e+00  9.9741889701748865e-01 -7.1802116072125555e-02 0.0000000000000000e+00  9.9778271393123974e-01 -6.6555659263718314e-02 0.0000000000000000e+00  9.9809758327994169e-01 -6.1653988117230114e-02 0.0000000000000000e+00  9.9836802450238848e-01 -5.7107684694950096e-02 0.0000000000000000e+00  9.9859908842489142e-01 -5.2913708970310780e-02 0.0000000000000000e+00  9.9879584203423277e-01 -4.9059819966502743e-02 0.0000000000000000e+00  9.9896306294682713e-01 -4.5528000921541162e-02 0.0000000000000000e+00  9.9910508147912169e-01 -4.2296999451694690e-02 0.0000000000000000e+00  9.9922571962670381e-01 -3.9344138528047475e-02 0.0000000000000000e+00  9.9932828932493623e-01 -3.6646557204128752e-02 0.0000000000000000e+00  9.9941562391683525e-01 -3.4182022628000165e-02 0.0000000000000000e+00  9.9949012576465113e-01 -3.1929429982078636e-02 0.0000000000000000e+00  9.9955381944010568e-01 -2.9869081718639039e-02 0.0000000000000000e+00  9.9960840435604514e-01 -2.7982815097444515e-02 0.0000000000000000e+00  9.9964260620594370e-01 -2.6733122859281588e-02 0.0000000000000000e+00  9.9959085754211607e-01 -2.8602753682770987e-02 0.0000000000000000e+00  9.9953002201757679e-01 -3.0655098850945549e-02 0.0000000000000000e+00  9.9945828018068450e-01 -3.2911186218175556e-02 0.0000000000000000e+00  9.9937342468575519e-01 -3.5394322028882048e-02 0.0000000000000000e+00  9.9927278220238303e-01 -3.8130129156973280e-02 0.0000000000000000e+00  9.9915312599965667e-01 -4.1146455559800149e-02 0.0000000000000000e+00  9.9901058328805303e-01 -4.4473075882873435e-02 0.0000000000000000e+00  9.9884054618893303e-01 -4.8141076940731255e-02 0.0000000000000000e+00  9.9863760302828930e-01 -5.2181776684315610e-02 0.0000000000000000e+00  9.9839551878706267e-01 -5.6624977403360220e-02 0.0000000000000000e+00  9.9810731124032159e-01 -6.1496302723292040e-02 0.0000000000000000e+00  9.9776549309555573e-01 -6.6813327920422591e-02 0.0000000000000000e+00  9.9736257847914300e-01 -7.2580211142257572e-02 0.0000000000000000e+00  9.9689197739376090e-01 -7.8780615686700028e-02 0.0000000000000000e+00  9.9634940783744363e-01 -8.5368949284815671e-02 0.0000000000000000e+00  9.9573491219065802e-01 -9.2260417540140541e-02 0.0000000000000000e+00  9.9505542957325022e-01 -9.9321156239810068e-02 0.0000000000000000e+00  9.9432760892392036e-01 -1.0636073585519011e-01 0.0000000000000000e+00  9.9358015143803136e-01 -1.1313037906945586e-01 0.0000000000000000e+00  9.9285455601089057e-01 -1.1933076136703195e-01 0.0000000000000000e+00  9.9220297192856299e-01 -1.2463250978836377e-01 0.0000000000000000e+00  9.9168229503214145e-01 -1.2870985090428708e-01 0.0000000000000000e+00  9.9134487299119978e-01 -1.3128344447827514e-01 0.0000000000000000e+00  9.9122790068264410e-01 -1.3216372009101937e-01 0.0000000000000000e+00  9.9134487299119922e-01 -1.3128344447827525e-01 0.0000000000000000e+00  9.9168229503214145e-01 -1.2870985090428716e-01 0.0000000000000000e+00  9.9220297192856277e-01 -1.2463250978836379e-01 0.0000000000000000e+00  9.9285455601089090e-01 -1.1933076136703179e-01 0.0000000000000000e+00  9.9358015143803058e-01 -1.1313037906945585e-01 0.0000000000000000e+00  9.9432760892392080e-01 -1.0636073585519025e-01 0.0000000000000000e+00  9.9505542957325144e-01 -9.9321156239810249e-02 0.0000000000000000e+00  9.9573491219065835e-01 -9.2260417540140582e-02 0.0000000000000000e+00  9.9634940783744408e-01 -8.5368949284815671e-02 0.0000000000000000e+00  9.9689197739376123e-01 -7.8780615686699917e-02 0.0000000000000000e+00  9.9736257847914345e-01 -7.2580211142257614e-02 0.0000000000000000e+00  9.9776549309555507e-01 -6.6813327920422591e-02 0.0000000000000000e+00  9.9810731124032193e-01 -6.1496302723291811e-02 0.0000000000000000e+00  9.9839551878706256e-01 -5.6624977403360255e-02 0.0000000000000000e+00  9.9863760302828908e-01 -5.2181776684315430e-02 0.0000000000000000e+00  9.9884054618893270e-01 -4.8141076940731338e-02 0.0000000000000000e+00  9.9901058328805170e-01 -4.4473075882873234e-02 0.0000000000000000e+00  9.9915312599965589e-01 -4.1146455559800094e-02 0.0000000000000000e+00  9.9927278220238314e-01 -3.8130129156973121e-02 0.0000000000000000e+00  9.9937342468575474e-01 -3.5394322028882166e-02 0.0000000000000000e+00  9.9945828018068428e-01 -3.2911186218175514e-02 0.0000000000000000e+00  9.9953002201757657e-01 -3.0655098850945535e-02 0.0000000000000000e+00  9.9959085754211485e-01 -2.8602753682770991e-02 0.0000000000000000e+00  9.9964260620594159e-01 -2.6733122859281505e-02 0.0000000000000000e+00  9.9967940288289336e-01 -2.5319783800852678e-02 0.0000000000000000e+00  9.9963126456584728e-01 -2.7153911366605835e-02 0.0000000000000000e+00  9.9957425462426874e-01 -2.9177208440080048e-02 0.0000000000000000e+00  9.9950647595527609e-01 -3.1413444947734091e-02 0.0000000000000000e+00  9.9942558639193280e-01 -3.3889486056281712e-02 0.0000000000000000e+00  9.9932869299094351e-01 -3.6635547833094709e-02 0.0000000000000000e+00  9.9921222545713295e-01 -3.9685368802919029e-02 0.0000000000000000e+00  9.9907178882661296e-01 -4.3076220479627343e-02 0.0000000000000000e+00  9.9890199971514604e-01 -4.6848638882048543e-02 0.0000000000000000e+00  9.9869631839578898e-01 -5.1045701314759440e-02 0.0000000000000000e+00  9.9844690303104022e-01 -5.5711595092427110e-02 0.0000000000000000e+00  9.9814453570825878e-01 -6.0889127401891202e-02 0.0000000000000000e+00  9.9777870608209607e-01 -6.6615716532633096e-02 0.0000000000000000e+00  9.9733798977097032e-01 -7.2917310425012774e-02 0.0000000000000000e+00  9.9681092224427503e-01 -7.9799657233206173e-02 0.0000000000000000e+00  9.9618762837882380e-01 -8.7236512223912779e-02 0.0000000000000000e+00  9.9546248057033238e-01 -9.5154872585583875e-02 0.0000000000000000e+00  9.9463794284489382e-01 -1.0341838643730958e-01 0.0000000000000000e+00  9.9372939939596527e-01 -1.1181180964528382e-01 0.0000000000000000e+00  9.9277007125341776e-01 -1.2003160260324112e-01 0.0000000000000000e+00  9.9181417029223617e-01 -1.2768966914963201e-01 0.0000000000000000e+00  9.9093566557546175e-01 -1.3433728704471720e-01 0.0000000000000000e+00  9.9022028621442659e-01 -1.3951266884924646e-01 0.0000000000000000e+00  9.8975044905568654e-01 -1.4280773296318780e-01 0.0000000000000000e+00  9.8958643928452128e-01 -1.4393984571411222e-01 0.0000000000000000e+00  9.8975044905568654e-01 -1.4280773296318777e-01 0.0000000000000000e+00  9.9022028621442604e-01 -1.3951266884924618e-01 0.0000000000000000e+00  9.9093566557546164e-01 -1.3433728704471712e-01 0.0000000000000000e+00  9.9181417029223684e-01 -1.2768966914963203e-01 0.0000000000000000e+00  9.9277007125341798e-01 -1.2003160260324117e-01 0.0000000000000000e+00  9.9372939939596538e-01 -1.1181180964528387e-01 0.0000000000000000e+00  9.9463794284489371e-01 -1.0341838643730969e-01 0.0000000000000000e+00  9.9546248057033226e-01 -9.5154872585584013e-02 0.0000000000000000e+00  9.9618762837882402e-01 -8.7236512223912890e-02 0.0000000000000000e+00  9.9681092224427470e-01 -7.9799657233206145e-02 0.0000000000000000e+00  9.9733798977