<?xml version="1.0"?>
<VTKFile type="UnstructuredGrid"  version="0.1"  >
<UnstructuredGrid>
<Piece  NumberOfPoints="1617" NumberOfCells="3072">
<Points>
<DataArray  type="Float64"  NumberOfComponents="3"  format="ascii">0 0 0  0.03125 0 0  0.0625 0 0  0.09375 0 0  0.125 0 0  0.15625 0 0  0.1875 0 0  0.21875 0 0  0.25 0 0  0.28125 0 0  0.3125 0 0  0.34375 0 0  0.375 0 0  0.40625 0 0  0.4375 0 0  0.46875 0 0  0.5 0 0  0.53125 0 0  0.5625 0 0  0.59375 0 0  0.625 0 0  0.65625 0 0  0.6875 0 0  0.71875 0 0  0.75 0 0  0.78125 0 0  0.8125 0 0  0.84375 0 0  0.875 0 0  0.90625 0 0  0.9375 0 0  0.96875 0 0  1 0 0  1.03125 0 0  1.0625 0 0  1.09375 0 0  1.125 0 0  1.15625 0 0  1.1875 0 0  1.21875 0 0  1.25 0 0  1.28125 0 0  1.3125 0 0  1.34375 0 0  1.375 0 0  1.40625 0 0  1.4375 0 0  1.46875 0 0  1.5 0 0  0 0.03125 0  0.03125 0.03125 0  0.0625 0.03125 0  0.09375 0.03125 0  0.125 0.03125 0  0.15625 0.03125 0  0.1875 0.03125 0  0.21875 0.03125 0  0.25 0.03125 0  0.28125 0.03125 0  0.3125 0.03125 0  0.34375 0.03125 0  0.375 0.03125 0  0.40625 0.03125 0  0.4375 0.03125 0  0.46875 0.03125 0  0.5 0.03125 0  0.53125 0.03125 0  0.5625 0.03125 0  0.59375 0.03125 0  0.625 0.03125 0  0.65625 0.03125 0  0.6875 0.03125 0  0.71875 0.03125 0  0.75 0.03125 0  0.78125 0.03125 0  0.8125 0.03125 0  0.84375 0.03125 0  0.875 0.03125 0  0.90625 0.03125 0  0.9375 0.03125 0  0.96875 0.03125 0  1 0.03125 0  1.03125 0.03125 0  1.0625 0.03125 0  1.09375 0.03125 0  1.125 0.03125 0  1.15625 0.03125 0  1.1875 0.03125 0  1.21875 0.03125 0  1.25 0.03125 0  1.28125 0.03125 0  1.3125 0.03125 0  1.34375 0.03125 0  1.375 0.03125 0  1.40625 0.03125 0  1.4375 0.03125 0  1.46875 0.03125 0  1.5 0.03125 0  0 0.0625 0  0.03125 0.0625 0  0.0625 0.0625 0  0.09375 0.0625 0  0.125 0.0625 0  0.15625 0.0625 0  0.1875 0.0625 0  0.21875 0.0625 0  0.25 0.0625 0  0.28125 0.0625 0  0.3125 0.0625 0  0.34375 0.0625 0  0.375 0.0625 0  0.40625 0.0625 0  0.4375 0.0625 0  0.46875 0.0625 0  0.5 0.0625 0  0.53125 0.0625 0  0.5625 0.0625 0  0.59375 0.0625 0  0.625 0.0625 0  0.65625 0.0625 0  0.6875 0.0625 0  0.71875 0.0625 0  0.75 0.0625 0  0.78125 0.0625 0  0.8125 0.0625 0  0.84375 0.0625 0  0.875 0.0625 0  0.90625 0.0625 0  0.9375 0.0625 0  0.96875 0.0625 0  1 0.0625 0  1.03125 0.0625 0  1.0625 0.0625 0  1.09375 0.0625 0  1.125 0.0625 0  1.15625 0.0625 0  1.1875 0.0625 0  1.21875 0.0625 0  1.25 0.0625 0  1.28125 0.0625 0  1.3125 0.0625 0  1.34375 0.0625 0  1.375 0.0625 0  1.40625 0.0625 0  1.4375 0.0625 0  1.46875 0.0625 0  1.5 0.0625 0  0 0.09375 0  0.03125 0.09375 0  0.0625 0.09375 0  0.09375 0.09375 0  0.125 0.09375 0  0.15625 0.09375 0  0.1875 0.09375 0  0.21875 0.09375 0  0.25 0.09375 0  0.28125 0.09375 0  0.3125 0.09375 0  0.34375 0.09375 0  0.375 0.09375 0  0.40625 0.09375 0  0.4375 0.09375 0  0.46875 0.09375 0  0.5 0.09375 0  0.53125 0.09375 0  0.5625 0.09375 0  0.59375 0.09375 0  0.625 0.09375 0  0.65625 0.09375 0  0.6875 0.09375 0  0.71875 0.09375 0  0.75 0.09375 0  0.78125 0.09375 0  0.8125 0.09375 0  0.84375 0.09375 0  0.875 0.09375 0  0.90625 0.09375 0  0.9375 0.09375 0  0.96875 0.09375 0  1 0.09375 0  1.03125 0.09375 0  1.0625 0.09375 0  1.09375 0.09375 0  1.125 0.09375 0  1.15625 0.09375 0  1.1875 0.09375 0  1.21875 0.09375 0  1.25 0.09375 0  1.28125 0.09375 0  1.3125 0.09375 0  1.34375 0.09375 0  1.375 0.09375 0  1.40625 0.09375 0  1.4375 0.09375 0  1.46875 0.09375 0  1.5 0.09375 0  0 0.125 0  0.03125 0.125 0  0.0625 0.125 0  0.09375 0.125 0  0.125 0.125 0  0.15625 0.125 0  0.1875 0.125 0  0.21875 0.125 0  0.25 0.125 0  0.28125 0.125 0  0.3125 0.125 0  0.34375 0.125 0  0.375 0.125 0  0.40625 0.125 0  0.4375 0.125 0  0.46875 0.125 0  0.5 0.125 0  0.53125 0.125 0  0.5625 0.125 0  0.59375 0.125 0  0.625 0.125 0  0.65625 0.125 0  0.6875 0.125 0  0.71875 0.125 0  0.75 0.125 0  0.78125 0.125 0  0.8125 0.125 0  0.84375 0.125 0  0.875 0.125 0  0.90625 0.125 0  0.9375 0.125 0  0.96875 0.125 0  1 0.125 0  1.03125 0.125 0  1.0625 0.125 0  1.09375 0.125 0  1.125 0.125 0  1.15625 0.125 0  1.1875 0.125 0  1.21875 0.125 0  1.25 0.125 0  1.28125 0.125 0  1.3125 0.125 0  1.34375 0.125 0  1.375 0.125 0  1.40625 0.125 0  1.4375 0.125 0  1.46875 0.125 0  1.5 0.125 0  0 0.15625 0  0.03125 0.15625 0  0.0625 0.15625 0  0.09375 0.15625 0  0.125 0.15625 0  0.15625 0.15625 0  0.1875 0.15625 0  0.21875 0.15625 0  0.25 0.15625 0  0.28125 0.15625 0  0.3125 0.15625 0  0.34375 0.15625 0  0.375 0.15625 0  0.40625 0.15625 0  0.4375 0.15625 0  0.46875 0.15625 0  0.5 0.15625 0  0.53125 0.15625 0  0.5625 0.15625 0  0.59375 0.15625 0  0.625 0.15625 0  0.65625 0.15625 0  0.6875 0.15625 0  0.71875 0.15625 0  0.75 0.15625 0  0.78125 0.15625 0  0.8125 0.15625 0  0.84375 0.15625 0  0.875 0.15625 0  0.90625 0.15625 0  0.9375 0.15625 0  0.96875 0.15625 0  1 0.15625 0  1.03125 0.15625 0  1.0625 0.15625 0  1.09375 0.15625 0  1.125 0.15625 0  1.15625 0.15625 0  1.1875 0.15625 0  1.21875 0.15625 0  1.25 0.15625 0  1.28125 0.15625 0  1.3125 0.15625 0  1.34375 0.15625 0  1.375 0.15625 0  1.40625 0.15625 0  1.4375 0.15625 0  1.46875 0.15625 0  1.5 0.15625 0  0 0.1875 0  0.03125 0.1875 0  0.0625 0.1875 0  0.09375 0.1875 0  0.125 0.1875 0  0.15625 0.1875 0  0.1875 0.1875 0  0.21875 0.1875 0  0.25 0.1875 0  0.28125 0.1875 0  0.3125 0.1875 0  0.34375 0.1875 0  0.375 0.1875 0  0.40625 0.1875 0  0.4375 0.1875 0  0.46875 0.1875 0  0.5 0.1875 0  0.53125 0.1875 0  0.5625 0.1875 0  0.59375 0.1875 0  0.625 0.1875 0  0.65625 0.1875 0  0.6875 0.1875 0  0.71875 0.1875 0  0.75 0.1875 0  0.78125 0.1875 0  0.8125 0.1875 0  0.84375 0.1875 0  0.875 0.1875 0  0.90625 0.1875 0  0.9375 0.1875 0  0.96875 0.1875 0  1 0.1875 0  1.03125 0.1875 0  1.0625 0.1875 0  1.09375 0.1875 0  1.125 0.1875 0  1.15625 0.1875 0  1.1875 0.1875 0  1.21875 0.1875 0  1.25 0.1875 0  1.28125 0.1875 0  1.3125 0.1875 0  1.34375 0.1875 0  1.375 0.1875 0  1.40625 0.1875 0  1.4375 0.1875 0  1.46875 0.1875 0  1.5 0.1875 0  0 0.21875 0  0.03125 0.21875 0  0.0625 0.21875 0  0.09375 0.21875 0  0.125 0.21875 0  0.15625 0.21875 0  0.1875 0.21875 0  0.21875 0.21875 0  0.25 0.21875 0  0.28125 0.21875 0  0.3125 0.21875 0  0.34375 0.21875 0  0.375 0.21875 0  0.40625 0.21875 0  0.4375 0.21875 0  0.46875 0.21875 0  0.5 0.21875 0  0.53125 0.21875 0  0.5625 0.21875 0  0.59375 0.21875 0  0.625 0.21875 0  0.65625 0.21875 0  0.6875 0.21875 0  0.71875 0.21875 0  0.75 0.21875 0  0.78125 0.21875 0  0.8125 0.21875 0  0.84375 0.21875 0  0.875 0.21875 0  0.90625 0.21875 0  0.9375 0.21875 0  0.96875 0.21875 0  1 0.21875 0  1.03125 0.21875 0  1.0625 0.21875 0  1.09375 0.21875 0  1.125 0.21875 0  1.15625 0.21875 0  1.1875 0.21875 0  1.21875 0.21875 0  1.25 0.21875 0  1.28125 0.21875 0  1.3125 0.21875 0  1.34375 0.21875 0  1.375 0.21875 0  1.40625 0.21875 0  1.4375 0.21875 0  1.46875 0.21875 0  1.5 0.21875 0  0 0.25 0  0.03125 0.25 0  0.0625 0.25 0  0.09375 0.25 0  0.125 0.25 0  0.15625 0.25 0  0.1875 0.25 0  0.21875 0.25 0  0.25 0.25 0  0.28125 0.25 0  0.3125 0.25 0  0.34375 0.25 0  0.375 0.25 0  0.40625 0.25 0  0.4375 0.25 0  0.46875 0.25 0  0.5 0.25 0  0.53125 0.25 0  0.5625 0.25 0  0.59375 0.25 0  0.625 0.25 0  0.65625 0.25 0  0.6875 0.25 0  0.71875 0.25 0  0.75 0.25 0  0.78125 0.25 0  0.8125 0.25 0  0.84375 0.25 0  0.875 0.25 0  0.90625 0.25 0  0.9375 0.25 0  0.96875 0.25 0  1 0.25 0  1.03125 0.25 0  1.0625 0.25 0  1.09375 0.25 0  1.125 0.25 0  1.15625 0.25 0  1.1875 0.25 0  1.21875 0.25 0  1.25 0.25 0  1.28125 0.25 0  1.3125 0.25 0  1.34375 0.25 0  1.375 0.25 0  1.40625 0.25 0  1.4375 0.25 0  1.46875 0.25 0  1.5 0.25 0  0 0.28125 0  0.03125 0.28125 0  0.0625 0.28125 0  0.09375 0.28125 0  0.125 0.28125 0  0.15625 0.28125 0  0.1875 0.28125 0  0.21875 0.28125 0  0.25 0.28125 0  0.28125 0.28125 0  0.3125 0.28125 0  0.34375 0.28125 0  0.375 0.28125 0  0.40625 0.28125 0  0.4375 0.28125 0  0.46875 0.28125 0  0.5 0.28125 0  0.53125 0.28125 0  0.5625 0.28125 0  0.59375 0.28125 0  0.625 0.28125 0  0.65625 0.28125 0  0.6875 0.28125 0  0.71875 0.28125 0  0.75 0.28125 0  0.78125 0.28125 0  0.8125 0.28125 0  0.84375 0.28125 0  0.875 0.28125 0  0.90625 0.28125 0  0.9375 0.28125 0  0.96875 0.28125 0  1 0.28125 0  1.03125 0.28125 0  1.0625 0.28125 0  1.09375 0.28125 0  1.125 0.28125 0  1.15625 0.28125 0  1.1875 0.28125 0  1.21875 0.28125 0  1.25 0.28125 0  1.28125 0.28125 0  1.3125 0.28125 0  1.34375 0.28125 0  1.375 0.28125 0  1.40625 0.28125 0  1.4375 0.28125 0  1.46875 0.28125 0  1.5 0.28125 0  0 0.3125 0  0.03125 0.3125 0  0.0625 0.3125 0  0.09375 0.3125 0  0.125 0.3125 0  0.15625 0.3125 0  0.1875 0.3125 0  0.21875 0.3125 0  0.25 0.3125 0  0.28125 0.3125 0  0.3125 0.3125 0  0.34375 0.3125 0  0.375 0.3125 0  0.40625 0.3125 0  0.4375 0.3125 0  0.46875 0.3125 0  0.5 0.3125 0  0.53125 0.3125 0  0.5625 0.3125 0  0.59375 0.3125 0  0.625 0.3125 0  0.65625 0.3125 0  0.6875 0.3125 0  0.71875 0.3125 0  0.75 0.3125 0  0.78125 0.3125 0  0.8125 0.3125 0  0.84375 0.3125 0  0.875 0.3125 0  0.90625 0.3125 0  0.9375 0.3125 0  0.96875 0.3125 0  1 0.3125 0  1.03125 0.3125 0  1.0625 0.3125 0  1.09375 0.3125 0  1.125 0.3125 0  1.15625 0.3125 0  1.1875 0.3125 0  1.21875 0.3125 0  1.25 0.3125 0  1.28125 0.3125 0  1.3125 0.3125 0  1.34375 0.3125 0  1.375 0.3125 0  1.40625 0.3125 0  1.4375 0.3125 0  1.46875 0.3125 0  1.5 0.3125 0  0 0.34375 0  0.03125 0.34375 0  0.0625 0.34375 0  0.09375 0.34375 0  0.125 0.34375 0  0.15625 0.34375 0  0.1875 0.34375 0  0.21875 0.34375 0  0.25 0.34375 0  0.28125 0.34375 0  0.3125 0.34375 0  0.34375 0.34375 0  0.375 0.34375 0  0.40625 0.34375 0  0.4375 0.34375 0  0.46875 0.34375 0  0.5 0.34375 0  0.53125 0.34375 0  0.5625 0.34375 0  0.59375 0.34375 0  0.625 0.34375 0  0.65625 0.34375 0  0.6875 0.34375 0  0.71875 0.34375 0  0.75 0.34375 0  0.78125 0.34375 0  0.8125 0.34375 0  0.84375 0.34375 0  0.875 0.34375 0  0.90625 0.34375 0  0.9375 0.34375 0  0.96875 0.34375 0  1 0.34375 0  1.03125 0.34375 0  1.0625 0.34375 0  1.09375 0.34375 0  1.125 0.34375 0  1.15625 0.34375 0  1.1875 0.34375 0  1.21875 0.34375 0  1.25 0.34375 0  1.28125 0.34375 0  1.3125 0.34375 0  1.34375 0.34375 0  1.375 0.34375 0  1
[...]
<PointData  Scalars="f_49"> 
<DataArray  type="Float64"  Name="f_49"  format="ascii">1.5368341081298051e-01  1.4773284202154030e-01  1.4136854786347608e-01  1.3471943382259394e-01  1.2820062220370385e-01  1.2180620833675417e-01  1.1548649971176923e-01  1.0920318178032778e-01  1.0293275347488501e-01  9.6663568215817494e-02  9.0391002983858965e-02  8.4113580571964219e-02  7.7830795810962208e-02  7.1542148146160459e-02  6.5246791349841848e-02  5.8943449316055024e-02  5.2630440857845531e-02  4.6305759292839387e-02  3.9967193035357576e-02  3.3612483926201822e-02  2.7239517800625918e-02  2.0846534449533157e-02  1.4432335683016979e-02  7.9964639373721162e-03  1.5393228041113700e-03  -4.9377830697798688e-03  -1.1432698402070949e-02  -1.7942551154072953e-02  -2.4463947582630499e-02  -3.0993196523821136e-02  -3.7526529087452284e-02  -4.4060285791392033e-02  -5.0591051976983395e-02  -5.7115735799744424e-02  -6.3631584434931290e-02  -7.0136160969557548e-02  -7.6627252722287029e-02  -8.3102843117289119e-02  -8.9560896557091887e-02  -9.5999939222415287e-02  -1.0241867903478934e-01  -1.0882170790518042e-01  -1.1521636896248000e-01  -1.2164426484332366e-01  -1.2811582348786912e-01  -1.3487740916855873e-01  -1.4180505373154123e-01  -1.4824947915189204e-01  -1.5364602952310424e-01  1.5463252637390140e-01  1.4846593200201214e-01  1.4201677772225899e-01  1.3522220321405742e-01  1.2860532948609305e-01  1.2216125192071838e-01  1.1580533418320392e-01  1.0949061364316251e-01  1.0319042546051149e-01  9.6891596212586265e-02  9.0588978285802910e-02  8.4280979713438356e-02  7.7967115735768130e-02  7.1646948321040071e-02  6.5319716378881842e-02  5.8984249996312452e-02  5.2638994488301651e-02  4.6282087389487046e-02  3.9911475413161826e-02  3.3525069108319296e-02  2.7120930276298635e-02  2.0697479295734938e-02  1.4253700361249021e-02  7.7893157423259097e-03  1.3048989636419023e-03  -5.1980963736269706e-03  -1.1717400940543360e-02  -1.8250077644804283e-02  -2.4792727246464939e-02  -3.1341716488429629e-02  -3.7893393615065579e-02  -4.4444264181285997e-02  -5.0991111056416884e-02  -5.7531055743880191e-02  -6.4061562149300519e-02  -7.0580402662635280e-02  -7.7085575940512116e-02  -8.3575274017048423e-02  -9.0047776274297442e-02  -9.6501983456520515e-02  -1.0293768887516595e-01  -1.0936042452278193e-01  -1.1578169246705311e-01  -1.2224133319710337e-01  -1.2877087239093654e-01  -1.3555168530791442e-01  -1.4252189129239853e-01  -1.4913829068561085e-01  -1.5512533222683905e-01  1.5451963645509198e-01  1.4847915861823988e-01  1.4196373506478835e-01  1.3508072429815229e-01  1.2839209859053932e-01  1.2192770702576329e-01  1.1555998917751316e-01  1.0923874870958160e-01  1.0293478250489820e-01  9.6633306588275569e-02  9.0328507831903451e-02  8.4018563368804935e-02  7.7702921614417775e-02  7.1381141223594111e-02  6.5052492999747413e-02  5.8715859831835471e-02  5.2369746636868185e-02  4.6012343271233547e-02  3.9641630971044853e-02  3.3255533767550659e-02  2.6852112696214788e-02  2.0429790474329450e-02  1.3987581533542036e-02  7.5252912688354894e-03  1.0436445461471555e-03  -5.4556885447492537e-03  -1.1970181652494376e-02  -1.8496641422696348e-02  -2.5031459777253441e-02  -3.1570881187479680e-02  -3.8111240591615199e-02  -4.4649142147701659e-02  -5.1181566133936846e-02  -5.7705908222894245e-02  -6.4219960150089253e-02  -7.0721858902632231e-02  -7.7209999007019067e-02  -8.3683013646794729e-02  -9.0139706041016884e-02  -9.6579676283595262e-02  -1.0300370966612020e-01  -1.0941885581850436e-01  -1.1583851716652631e-01  -1.2230482748201760e-01  -1.2884968443699049e-01  -1.3565647110216150e-01  -1.4262581558392987e-01  -1.4925546915196275e-01  -1.5519167628760119e-01  1.5447220344534307e-01  1.4852734692202013e-01  1.4198027554258710e-01  1.3506420086814880e-01  1.2832461843318646e-01  1.2183643298071246e-01  1.1544477201996475e-01  1.0910639147389579e-01  1.0278895063709943e-01  9.6476177380069583e-02  9.0161414231901993e-02  8.3842443745077613e-02  7.7518521872319182e-02  7.1189123024292991e-02  6.4853494331444939e-02  5.8510518780908106e-02  5.2158692907306792e-02  4.5796162334206150e-02  3.9420810069108650e-02  3.3030404839531305e-02  2.6622812832186475e-02  2.0196262544410565e-02  1.3749632431812603e-02  7.2827108393353161e-03  7.9636711656491644e-04  -5.7074179946355920e-03  -1.2225682907016368e-02  -1.8754752819996067e-02  -2.5290583573729992e-02  -3.1829107114141879e-02  -3.8366516017060585e-02  -4.4899452640506474e-02  -5.1425097270901700e-02  -5.7941172468008652e-02  -6.4445886081698420e-02  -7.0937850488528492e-02  -7.7415980101525020e-02  -8.3879476498408725e-02  -9.0327789344549533e-02  -9.6761293110636498e-02  -1.0318175503361667e-01  -1.0959741299437360e-01  -1.1602295568216078e-01  -1.2250094707120679e-01  -1.2906186603784456e-01  -1.3588357841154980e-01  -1.4285868415347558e-01  -1.4947311198953378e-01  -1.5542105084021768e-01  1.5442130964011200e-01  1.4850090706025201e-01  1.4193894569100915e-01  1.3501130296699965e-01  1.2824242623157711e-01  1.2173388505410218e-01  1.1531904673229672e-01  1.0896390578816763e-01  1.0263225790578014e-01  9.6307504901320881e-02  8.9982331237481006e-02  8.3654197070040390e-02  7.7322156514803786e-02  7.0985594539038285e-02  6.4643733146733898e-02  5.8295447716404582e-02  5.1939199470779816e-02  4.5573030835089005e-02  3.9194625149914515e-02  3.2801447997048511e-02  2.6390984748101549e-02  1.9961070850566864e-02  1.3510279006567772e-02  7.0382891673504170e-03  5.4614097459896845e-04  -5.9637227006812512e-03  -1.2487658253050924e-02  -1.9021226733449265e-02  -2.5559694250869187e-02  -3.2098503114086907e-02  -3.8633621768423693e-02  -4.5161737010460029e-02  -5.1680300346940197e-02  -5.8187469885773051e-02  -6.4681991172849590e-02  -7.1163067963027418e-02  -7.7630231023497767e-02  -8.4083315164754230e-02  -9.0522429018796077e-02  -9.6948651601481223e-02  -1.0336450244207085e-01  -1.0977897541015227e-01  -1.1620723729890420e-01  -1.2269165549853162e-01  -1.2926068515184216e-01  -1.3608809955527629e-01  -1.4306017332075899e-01  -1.4965972566945859e-01  -1.5558993354290721e-01  1.5435528336787976e-01  1.4844474245671149e-01  1.4188153231794748e-01  1.3494743163625650e-01  1.2816020771252445e-01  1.2163399909547008e-01  1.1519964189515386e-01  1.0882890113109046e-01  1.0248269658897599e-01  9.6145230952518451e-02  8.9808700263948021e-02  8.3470430932515813e-02  7.7129356160066109e-02  7.0784843618466972e-02  6.4436144624797811e-02  5.8082166218788048e-02  5.1721350103284110e-02  4.5351613891094156e-02  3.8970365345064310e-02  3.2574623886420864e-02  2.6161285978137095e-02  1.9727549359472112e-02  1.3271459492796563e-02  6.7924689906818702e-03  2.9183810353861089e-04  -6.2272935719121045e-03  -1.2760236368306147e-02  -1.9301396976424717e-02  -2.5845039014009658e-02  -3.2385941993644314e-02  -3.8919824566170241e-02  -4.5443507272121764e-02  -5.1954868016333332e-02  -5.8452675252598424e-02  -6.4936372739610670e-02  -7.1405881148753195e-02  -7.7861426721951357e-02  -8.4303501851604817e-02  -9.0732833242108540e-02  -9.7151079447250155e-02  -1.0356128348867034e-01  -1.0997284496909666e-01  -1.1640103019673183e-01  -1.2288771147958467e-01  -1.2945983037464034e-01  -1.3628830371955783e-01  -1.4325563101655178e-01  -1.4984197789993836e-01  -1.5575885818384791e-01  1.5428187215888145e-01  1.4837597115439699e-01  1.4181250688210545e-01  1.3487177703690031e-01  1.2807106911508534e-01  1.2153002011906593e-01  1.1507986920895266e-01  1.0869479377831091e-01  1.0233459312967723e-01  9.5984439977374533e-02  8.9636150914903762e-02  8.3287116088380256e-02  7.6936260863049541e-02  7.0583044942564913e-02  6.4226837766500913e-02  5.7866657959690496e-02  5.1500990240631317e-02  4.5127653412298976e-02  3.8743740128435039e-02  3.2345688369350215e-02  2.5929560905628087e-02  1.9491591142285360e-02  1.3028975877308014e-02  6.5407597525402941e-03  2.8508306219673813e-05  -6.5035618411996149e-03  -1.3049144375061227e-02  -1.9600922348070607e-02  -2.6151762038728727e-02  -3.2695636944919122e-02  -3.9228099754005971e-02  -4.5746333040925069e-02  -5.2248922969476537e-02  -5.8735514594151800e-02  -6.5206461013272307e-02  -7.1662540448131529e-02  -7.8104743693273304e-02  -8.4534222380962087e-02  -9.0952259382852729e-02  -9.7360968535554648e-02  -1.0376373618014469e-01  -1.1017015440824630e-01  -1.1659542951061790e-01  -1.2308099026178176e-01  -1.2965275497586592e-01  -1.3647990866311047e-01  -1.4344261334485520e-01  -1.5001894842074701e-01  -1.5592633348428939e-01  1.5420587454044132e-01  1.4830203782028187e-01  1.4173712878672026e-01  1.3478961812392962e-01  1.2797774826713745e-01  1.2142407968964403e-01  1.1496047667542779e-01  1.0856208095232976e-01  1.0218862642374306e-01  9.5825871215929365e-02  8.9465445791437517e-02  8.3104936820934130e-02  7.6743363806779735e-02  7.0380384585239472e-02  6.4015589199420547e-02  5.7648220609489556e-02  5.1276920814014595e-02  4.4899499081449835e-02  3.8512752554507389e-02  3.2112426723364673e-02  2.5693460389498188e-02  1.9250664568937967e-02  1.2779884062616114e-02  6.2794466419843669e-03  -2.4864488896278447e-04  -6.7984564654165339e-03  -1.3361130468455613e-02  -1.9926771975152822e-02  -2.6486370182129289e-02  -3.3033059950293389e-02  -3.9562530084519987e-02  -4.6072782879262406e-02  -5.2563573948251778e-02  -5.9035800206663734e-02  -6.5490980956968800e-02  -7.1930893876599566e-02  -7.8357340685583463e-02  -8.4772105350751178e-02  -9.1176946225756506e-02  -9.7574313706500132e-02  -1.0396779972092805e-01  -1.1036705950726600e-01  -1.1678718356072847e-01  -1.2326924985096048e-01  -1.2983852954313138e-01  -1.3666313407505126e-01  -1.4362176249898953e-01  -1.5019061711402543e-01  -1.5609117967137917e-01  1.5412985913535310e-01  1.4822658451372320e-01  1.4165912829992933e-01  1.3470486869212836e-01  1.2788314236389328e-01  1.2131835455898828e-01  1.1484271966375691e-01  1.0843190260125554e-01  1.0204580242321334e-01  9.5670443340905631e-02  8.9297460403735082e-02  8.2924662756267767e-02  7.6551231281985391e-02  7.0177097949078171e-02  6.3802171892054296e-02  5.7426054527143014e-02  5.1047714126661772e-02  4.4665123127496986e-02  3.8274904556189461e-02  3.1872068612667635e-02  2.5450108952485260e-02  1.9001764573482453e-02  1.2520701743029853e-02  6.0039586906361188e-03  -5.4582866201408628e-04  -7.1198790641715613e-03  -1.3705185121040478e-02  -2.0287978093969927e-02  -2.6856870849502116e-02  -3.3404435986330895e-02  -3.9927220361139826e-02  -4.6424862941572463e-02  -5.2898977526392610e-02  -5.9352188098064987e-02  -6.5787446480462489e-02  -7.2207631519727561e-02  -7.8615344431344200e-02  -8.5012920503495168e-02  -9.1402475404556191e-02  -9.7786663755769804e-02  -1.0416915730506142e-01  -1.1055957549315858e-01  -1.1697285937317162e-01  -1.2344979793762133e-01  -1.3001522785744177e-01  -1.3683653059878337e-01  -1.4379139993892953e-01  -1.5035436487018719e-01  -1.5624973391453501e-01  1.5405583013995308e-01  1.4815231580124533e-01  1.4158174147228250e-01  1.3462099044288139e-01  1.2779034379933471e-01  1.2121551352465111e-01  1.1472886653168353e-01  1.0830638859456726e-01  1.0190806723073484e-01  9.5520056097146117e-02  8.9134064741999502e-02  8.2748076860749697e-02  7.6361455350109200e-02  6.9974432504069151e-02  6.3587305633326513e-02  5.7200165512769470e-02  5.0812518078367362e-02  4.4422769813126289e-02  3.8027657613675256e-02  3.1621568982690619e-02  2.5196279950155217e-02  1.8741559651692573e-02  1.2247497885010748e-02  5.7087067871067921e-03  -8.7127923209634472e-04  -7.4787208067807190e-03  -1.4093602502248084e-02  -2.0696347229000697e-02  -2.7272947126035327e-02  -3.3816439067387433e-02  -4.0325703622620480e-02  -4.6803336066956552e-02  -5.3253721475769830e-02  -5.9681710965836812e-02  -6.6091873983489410e-02  -7.2488174562260102e-02  -7.8873888383184432e-02  -8.5251730434298900e-02  -9.1623993758319019e-02  -9.7993370863883544e-02  -1.0436347521884030e-01  -1.1074379034293437e-01  -1.1714906319104315e-01  -1.2361981068377982e-01  -1.3018053648382272e-01  -1.3699805782992361e-01  -1.4394931059872876e-01  -1.5050732622408330e-01  -1.5639846356565235e-01  1.5398588534459379e-01  1.4808173250083734e-01  1.4150787349739025e-01  1.3454106182553835e-01  1.2770232906585652e-01  1.2111837638905251e-01  1.1462159752954763e-01  1.0818815066211182e-01  1.0177801197932242e-01  9.5377386929098640e-02  8.8978017848276914e-02  8.2577979037015248e-02  7.6176771491636111e-02  6.9774882247273864e-02  6.3372996795868913e-02  5.6971773643357586e-02  5.0571459515333345e-02  4.4171250271809515e-02  3.7768516721177592e-02  3.1357438088371270e-02  2.4928088470755169e-02  1.8466121432269993e-02  1.1955674974449607e-02  5.3865165310214005e-03  -1.2366329620607927e-03  -7.8908287690749052e-03  -1.4543718615077859e-02  -2.1167251504160538e-02  -2.7745669019974387e-02  -3.4275140743130220e-02  -4.0759561306778151e-02  -4.7206351531130300e-02  -5.3623649222041998e-02  -6.0018858302209287e-02  -6.6398104282404141e-02  -7.2766190867222871e-02  -7.9126764353361231e-02  -8.5482623832492236e-02  -9.1835982405653577e-02  -9.8189361633657046e-02  -1.0454615840398702e-01  -1.1091561026731057e-01  -1.1731221029694297e-01  -1.2377618875572151e-01  -1.3033175389561591e-01  -1.3714524000958447e-01  -1.4409297472974780e-01  -1.5064667598858331e-01  -1.5653424234547686e-01  1.5392220336177229e-01  1.4801724707105346e-01  1.4144020839281396e-01  1.3446791267423405e-01  1.2762195941504820e-01  1.2102981596059405e-01  1.1452381713811555e-01  1.0808018595382250e-01  1.0165880882169641e-01  9.5245860129559171e-02  8.8833022354011235e-02  8.2418347781244045e-02  7.6001357430944189e-02  6.9582656203677581e-02  6.3163199399796657e-02  5.6744156477193018e-02  5.0326595478032816e-02  4.3910847517163364e-02  3.7495645815988354e-02  3.1075875692388701e-02  2.4640746970935910e-02  1.8170647397073372e-02  1.1639914702269813e-02  5.0278812019511768e-03  -1.6593495083375067e-03  -8.3803200314341852e-03  -1.5080204868461114e-02  -2.1719766955296756e-02  -2.8285814596733301e-02  -3.4783489223258364e-02  -4.1225894292035117e-02  -4.7627354146239829e-02  -5.4000334698586040e-02  -6.0354568197662578e-02  -6.6697196029601655e-02  -7.3033268875901572e-02  -7.9366275198167510e-02  -8.5698670873408336e-02  -9.2032262830231470e-02  -9.8369162882678066e-02  -1.0471238401788154e-01  -1.1107080734910627e-01  -1.1745860866155203e-01  -1.2391570570699864e-01  -1.3046602104977958e-01  -1.3727545563751220e-01  -1.4421983406584601e-01  -1.5076975648817914e-01  -1.5665429825368124e-01  1.5386689432840348e-01  1.4796111632199921e-01  1.4138119754665726e-01  1.3440413444773455e-01  1.2755193548079777e-01  1.2095265624385358e-01  1.1443851884422965e-01  1.0798573734472397e-01  1.0155404876479195e-01  9.5129514781967670e-02  8.8703656616082954e-02  8.2274370761975996e-02  7.5841022210947087e-02  6.9404104489307228e-02  6.2964569223474917e-02  5.6523806267946827e-02  5.0083481125441094e-02  4.3645129008628991e-02  3.7209472702715921e-02  3.0773620467894915e-02  2.4328405399155192e-02  1.7848942582588935e-02  1.1294365530403283e-02  4.6195338676208305e-03  -2.1673917179328454e-03  -8.9848092218528797e-03  -1.5736926290817108e-02  -2.2374076590179509e-02  -2.8898844714871839e-02  -3.5336098989463778e-02  -4.1713131013036031e-02  -4.8052200140201839e-02  -5.4369329001466037e-02  -6.0675292168336351e-02  -6.6977018446151199e-02  -7.3278819655260452e-02  -7.9583299157128209e-02  -8.5892058683788422e-02  -9.2206151642341000e-02  -9.8527050636104813e-02  -1.0485723812666320e-01  -1.1120515038936386e-01  -1.1758459818820019e-01  -1.2403517004129172e-01  -1.3058050943311778e-01  -1.3738613010331988e-01  -1.4432743923940677e-01  -1.5087412761960567e-01  -1.5675615745266513e-01  1.5382187022167348e-01  1.4791535534326858e-01  1.4133301062436349e-01  1.3435203694925413e-01  1.2749472033958431e-01  1.2088955322351055e-01  1.1436862105217149e-01  1.0790808505730784e-01  1.0146749981386445e-01  9.5032756943045971e-02  8.8595137700813606e-02  8.2152261577825153e-02  7.5703154341255782e-02  6.9247923899981148e-02  6.2787119183373138e-02  5.6321794578279918e-02  4.9853516616916699e-02  4.3384355527169752e-02  3.6916757009419592e-02  3.0451517375969839e-02  2.3985447097391286e-02  1.7492918138394577e-02  1.0913141225641070e-02  4.1410155600718479e-03  -2.8065034307211598e-03  -9.7598905620517006e-03  -1.6553245795782285e-02  -2.3140659199183334e-02  -2.9573101200512059e-02  -3.5910061077457478e-02  -4.2195165222463943e-02  -4.8455977519875473e-02  -5.4708748444528728e-02  -6.0962602195804530e-02  -6.7222377711745468e-02  -7.3490426082412991e-02  -7.9767701249898848e-02  -8.6054486491142501e-02  -9.2350807515774791e-02  -9.8657342118027888e-02  -1.0497595933044829e-01  -1.1131461324029596e-01  -1.1768673862223507e-01  -1.2413160457069553e-01  -1.3067259565419159e-01  -1.3747489642984678e-01  -1.4441357575148639e-01  -1.5095763677745297e-01  -1.5683767477306623e-01  1.5378874045838559e-01  1.4788165052937788e-01  1.4129746098839185e-01  1.3431356631227495e-01  1.2745242632909595e-01  1.2084283783228143e-01  1.1431675500427704e-01  1.0785027307736389e-01  1.0140276878670687e-01  9.4959951860204284e-02  8.8512841250413490e-02  8.2058725757724937e-02  7.5596187066169773e-02  6.9124750151956460e-02  6.2644203762866765e-02  5.6154639528797221e-02  4.9656476878697002e-02  4.3150666708369721e-02  3.6639126466563851e-02  3.0124858569314582e-02  2.3612983772394583e-02  1.7091315067617865e-02  1.0488037497229001e-02  3.5590860563722918e-03  -3.6357814469459293e-03  -1.0762664981088922e-02  -1.7549041472321079e-02  -2.3991089290565235e-02  -3.0257660504410425e-02  -3.6452223910438529e-02  -4.2625567962611216e-02  -4.8801207739012760e-02  -5.4989408601264153e-02  -6.1194089601678804e-02  -6.7416099872279520e-02  -7.3654856982326683e-02  -7.9909191029501184e-02  -8.6177855136263998e-02  -9.2459771271720906e-02  -9.8754814795084911e-02  -1.0506426570402215e-01  -1.1139563547315097e-01  -1.1776202511922244e-01  -1.2420243199472893e-01  -1.3074002499232315e-01  -1.3753973662675612e-01  -1.4447637730592644e-01  -1.5101849719030283e-01  -1.5689708862054796e-01  1.5376872591387478e-01  1.4786127833774051e-01  1.4127592307181516e-01  1.3429020739201072e-01  1.2742668564796247e-01  1.2081434098169511e-01  1.1428502833619171e-01  1.0781479357020470e-01  1.0136288228217218e-01  9.4914867265394026e-02  8.8461563429410764e-02  8.1999990268638814e-02  7.5528346879628533e-02  6.9045616095673751e-02  6.2550801684862017e-02  5.6042839956177794e-02  4.9520418106996332e-02  4.2981879121420513e-02  3.6425303435222968e-02  2.9849271558847985e-02  2.3256912922761473e-02  1.6653984994113108e-02  1.0006898681612541e-02  2.8646362920829128e-03  -4.6109755353794723e-03  -1.1943290314566783e-02  -1.8648441133494262e-02  -2.4799030135381615e-02  -3.0833131024820232e-02  -3.6869503852508367e-02  -4.2937281214643575e-02  -4.9040802687151490e-02  -5.5178309623458821e-02  -6.1346410262804310e-02  -6.7541419098781835e-02  -7.3759850926265455e-02  -7.9998625029512896e-02  -8.6255209820223958e-02  -9.2527648407728480e-02  -9.8815204191567724e-02  -1.0511872338640318e-01  -1.1144540181122292e-01  -1.1780810696044670e-01  -1.2424565203345372e-01  -1.3078105859524788e-01  -1.3757910397890749e-01  -1.4451442432238851e-01  -1.5105536212720919e-01  -1.5693307992549399e-01  1.5376259236595796e-01  1.4785503838469857e-01  1.4126925882527047e-01  1.3428289389247819e-01  1.2741853134040820e-01  1.2080523200032213e-01  1.1427480286850139e-01  1.0780327925521019e-01  1.0134985596458276e-01  9.4900061833124300e-02  8.8444639175322443e-02  8.1980512792408908e-02  7.5505741575323929e-02  6.9019103367218282e-02  6.2519291583497213e-02  5.6004759096896166e-02  4.9473406561618381e-02  4.2922238506048496e-02  3.6346971166663369e-02  2.9742062165997441e-02  2.3103359525717487e-02  1.6434433825191948e-02  9.7631487737146368e-03  2.3410968048635959e-03  -5.1768187887715486e-03  -1.2605513493331867e-02  -1.9469574968304190e-02  -2.5254292569254190e-02  -3.1098361935308769e-02  -3.70