<?xml version="1.0"?>
<VTKFile type="UnstructuredGrid"  version="0.1"  >
<UnstructuredGrid>
<Piece  NumberOfPoints="1617" NumberOfCells="3072">
<Points>
<DataArray  type="Float64"  NumberOfComponents="3"  format="ascii">0 0 0  0.03125 0 0  0.0625 0 0  0.09375 0 0  0.125 0 0  0.15625 0 0  0.1875 0 0  0.21875 0 0  0.25 0 0  0.28125 0 0  0.3125 0 0  0.34375 0 0  0.375 0 0  0.40625 0 0  0.4375 0 0  0.46875 0 0  0.5 0 0  0.53125 0 0  0.5625 0 0  0.59375 0 0  0.625 0 0  0.65625 0 0  0.6875 0 0  0.71875 0 0  0.75 0 0  0.78125 0 0  0.8125 0 0  0.84375 0 0  0.875 0 0  0.90625 0 0  0.9375 0 0  0.96875 0 0  1 0 0  1.03125 0 0  1.0625 0 0  1.09375 0 0  1.125 0 0  1.15625 0 0  1.1875 0 0  1.21875 0 0  1.25 0 0  1.28125 0 0  1.3125 0 0  1.34375 0 0  1.375 0 0  1.40625 0 0  1.4375 0 0  1.46875 0 0  1.5 0 0  0 0.03125 0  0.03125 0.03125 0  0.0625 0.03125 0  0.09375 0.03125 0  0.125 0.03125 0  0.15625 0.03125 0  0.1875 0.03125 0  0.21875 0.03125 0  0.25 0.03125 0  0.28125 0.03125 0  0.3125 0.03125 0  0.34375 0.03125 0  0.375 0.03125 0  0.40625 0.03125 0  0.4375 0.03125 0  0.46875 0.03125 0  0.5 0.03125 0  0.53125 0.03125 0  0.5625 0.03125 0  0.59375 0.03125 0  0.625 0.03125 0  0.65625 0.03125 0  0.6875 0.03125 0  0.71875 0.03125 0  0.75 0.03125 0  0.78125 0.03125 0  0.8125 0.03125 0  0.84375 0.03125 0  0.875 0.03125 0  0.90625 0.03125 0  0.9375 0.03125 0  0.96875 0.03125 0  1 0.03125 0  1.03125 0.03125 0  1.0625 0.03125 0  1.09375 0.03125 0  1.125 0.03125 0  1.15625 0.03125 0  1.1875 0.03125 0  1.21875 0.03125 0  1.25 0.03125 0  1.28125 0.03125 0  1.3125 0.03125 0  1.34375 0.03125 0  1.375 0.03125 0  1.40625 0.03125 0  1.4375 0.03125 0  1.46875 0.03125 0  1.5 0.03125 0  0 0.0625 0  0.03125 0.0625 0  0.0625 0.0625 0  0.09375 0.0625 0  0.125 0.0625 0  0.15625 0.0625 0  0.1875 0.0625 0  0.21875 0.0625 0  0.25 0.0625 0  0.28125 0.0625 0  0.3125 0.0625 0  0.34375 0.0625 0  0.375 0.0625 0  0.40625 0.0625 0  0.4375 0.0625 0  0.46875 0.0625 0  0.5 0.0625 0  0.53125 0.0625 0  0.5625 0.0625 0  0.59375 0.0625 0  0.625 0.0625 0  0.65625 0.0625 0  0.6875 0.0625 0  0.71875 0.0625 0  0.75 0.0625 0  0.78125 0.0625 0  0.8125 0.0625 0  0.84375 0.0625 0  0.875 0.0625 0  0.90625 0.0625 0  0.9375 0.0625 0  0.96875 0.0625 0  1 0.0625 0  1.03125 0.0625 0  1.0625 0.0625 0  1.09375 0.0625 0  1.125 0.0625 0  1.15625 0.0625 0  1.1875 0.0625 0  1.21875 0.0625 0  1.25 0.0625 0  1.28125 0.0625 0  1.3125 0.0625 0  1.34375 0.0625 0  1.375 0.0625 0  1.40625 0.0625 0  1.4375 0.0625 0  1.46875 0.0625 0  1.5 0.0625 0  0 0.09375 0  0.03125 0.09375 0  0.0625 0.09375 0  0.09375 0.09375 0  0.125 0.09375 0  0.15625 0.09375 0  0.1875 0.09375 0  0.21875 0.09375 0  0.25 0.09375 0  0.28125 0.09375 0  0.3125 0.09375 0  0.34375 0.09375 0  0.375 0.09375 0  0.40625 0.09375 0  0.4375 0.09375 0  0.46875 0.09375 0  0.5 0.09375 0  0.53125 0.09375 0  0.5625 0.09375 0  0.59375 0.09375 0  0.625 0.09375 0  0.65625 0.09375 0  0.6875 0.09375 0  0.71875 0.09375 0  0.75 0.09375 0  0.78125 0.09375 0  0.8125 0.09375 0  0.84375 0.09375 0  0.875 0.09375 0  0.90625 0.09375 0  0.9375 0.09375 0  0.96875 0.09375 0  1 0.09375 0  1.03125 0.09375 0  1.0625 0.09375 0  1.09375 0.09375 0  1.125 0.09375 0  1.15625 0.09375 0  1.1875 0.09375 0  1.21875 0.09375 0  1.25 0.09375 0  1.28125 0.09375 0  1.3125 0.09375 0  1.34375 0.09375 0  1.375 0.09375 0  1.40625 0.09375 0  1.4375 0.09375 0  1.46875 0.09375 0  1.5 0.09375 0  0 0.125 0  0.03125 0.125 0  0.0625 0.125 0  0.09375 0.125 0  0.125 0.125 0  0.15625 0.125 0  0.1875 0.125 0  0.21875 0.125 0  0.25 0.125 0  0.28125 0.125 0  0.3125 0.125 0  0.34375 0.125 0  0.375 0.125 0  0.40625 0.125 0  0.4375 0.125 0  0.46875 0.125 0  0.5 0.125 0  0.53125 0.125 0  0.5625 0.125 0  0.59375 0.125 0  0.625 0.125 0  0.65625 0.125 0  0.6875 0.125 0  0.71875 0.125 0  0.75 0.125 0  0.78125 0.125 0  0.8125 0.125 0  0.84375 0.125 0  0.875 0.125 0  0.90625 0.125 0  0.9375 0.125 0  0.96875 0.125 0  1 0.125 0  1.03125 0.125 0  1.0625 0.125 0  1.09375 0.125 0  1.125 0.125 0  1.15625 0.125 0  1.1875 0.125 0  1.21875 0.125 0  1.25 0.125 0  1.28125 0.125 0  1.3125 0.125 0  1.34375 0.125 0  1.375 0.125 0  1.40625 0.125 0  1.4375 0.125 0  1.46875 0.125 0  1.5 0.125 0  0 0.15625 0  0.03125 0.15625 0  0.0625 0.15625 0  0.09375 0.15625 0  0.125 0.15625 0  0.15625 0.15625 0  0.1875 0.15625 0  0.21875 0.15625 0  0.25 0.15625 0  0.28125 0.15625 0  0.3125 0.15625 0  0.34375 0.15625 0  0.375 0.15625 0  0.40625 0.15625 0  0.4375 0.15625 0  0.46875 0.15625 0  0.5 0.15625 0  0.53125 0.15625 0  0.5625 0.15625 0  0.59375 0.15625 0  0.625 0.15625 0  0.65625 0.15625 0  0.6875 0.15625 0  0.71875 0.15625 0  0.75 0.15625 0  0.78125 0.15625 0  0.8125 0.15625 0  0.84375 0.15625 0  0.875 0.15625 0  0.90625 0.15625 0  0.9375 0.15625 0  0.96875 0.15625 0  1 0.15625 0  1.03125 0.15625 0  1.0625 0.15625 0  1.09375 0.15625 0  1.125 0.15625 0  1.15625 0.15625 0  1.1875 0.15625 0  1.21875 0.15625 0  1.25 0.15625 0  1.28125 0.15625 0  1.3125 0.15625 0  1.34375 0.15625 0  1.375 0.15625 0  1.40625 0.15625 0  1.4375 0.15625 0  1.46875 0.15625 0  1.5 0.15625 0  0 0.1875 0  0.03125 0.1875 0  0.0625 0.1875 0  0.09375 0.1875 0  0.125 0.1875 0  0.15625 0.1875 0  0.1875 0.1875 0  0.21875 0.1875 0  0.25 0.1875 0  0.28125 0.1875 0  0.3125 0.1875 0  0.34375 0.1875 0  0.375 0.1875 0  0.40625 0.1875 0  0.4375 0.1875 0  0.46875 0.1875 0  0.5 0.1875 0  0.53125 0.1875 0  0.5625 0.1875 0  0.59375 0.1875 0  0.625 0.1875 0  0.65625 0.1875 0  0.6875 0.1875 0  0.71875 0.1875 0  0.75 0.1875 0  0.78125 0.1875 0  0.8125 0.1875 0  0.84375 0.1875 0  0.875 0.1875 0  0.90625 0.1875 0  0.9375 0.1875 0  0.96875 0.1875 0  1 0.1875 0  1.03125 0.1875 0  1.0625 0.1875 0  1.09375 0.1875 0  1.125 0.1875 0  1.15625 0.1875 0  1.1875 0.1875 0  1.21875 0.1875 0  1.25 0.1875 0  1.28125 0.1875 0  1.3125 0.1875 0  1.34375 0.1875 0  1.375 0.1875 0  1.40625 0.1875 0  1.4375 0.1875 0  1.46875 0.1875 0  1.5 0.1875 0  0 0.21875 0  0.03125 0.21875 0  0.0625 0.21875 0  0.09375 0.21875 0  0.125 0.21875 0  0.15625 0.21875 0  0.1875 0.21875 0  0.21875 0.21875 0  0.25 0.21875 0  0.28125 0.21875 0  0.3125 0.21875 0  0.34375 0.21875 0  0.375 0.21875 0  0.40625 0.21875 0  0.4375 0.21875 0  0.46875 0.21875 0  0.5 0.21875 0  0.53125 0.21875 0  0.5625 0.21875 0  0.59375 0.21875 0  0.625 0.21875 0  0.65625 0.21875 0  0.6875 0.21875 0  0.71875 0.21875 0  0.75 0.21875 0  0.78125 0.21875 0  0.8125 0.21875 0  0.84375 0.21875 0  0.875 0.21875 0  0.90625 0.21875 0  0.9375 0.21875 0  0.96875 0.21875 0  1 0.21875 0  1.03125 0.21875 0  1.0625 0.21875 0  1.09375 0.21875 0  1.125 0.21875 0  1.15625 0.21875 0  1.1875 0.21875 0  1.21875 0.21875 0  1.25 0.21875 0  1.28125 0.21875 0  1.3125 0.21875 0  1.34375 0.21875 0  1.375 0.21875 0  1.40625 0.21875 0  1.4375 0.21875 0  1.46875 0.21875 0  1.5 0.21875 0  0 0.25 0  0.03125 0.25 0  0.0625 0.25 0  0.09375 0.25 0  0.125 0.25 0  0.15625 0.25 0  0.1875 0.25 0  0.21875 0.25 0  0.25 0.25 0  0.28125 0.25 0  0.3125 0.25 0  0.34375 0.25 0  0.375 0.25 0  0.40625 0.25 0  0.4375 0.25 0  0.46875 0.25 0  0.5 0.25 0  0.53125 0.25 0  0.5625 0.25 0  0.59375 0.25 0  0.625 0.25 0  0.65625 0.25 0  0.6875 0.25 0  0.71875 0.25 0  0.75 0.25 0  0.78125 0.25 0  0.8125 0.25 0  0.84375 0.25 0  0.875 0.25 0  0.90625 0.25 0  0.9375 0.25 0  0.96875 0.25 0  1 0.25 0  1.03125 0.25 0  1.0625 0.25 0  1.09375 0.25 0  1.125 0.25 0  1.15625 0.25 0  1.1875 0.25 0  1.21875 0.25 0  1.25 0.25 0  1.28125 0.25 0  1.3125 0.25 0  1.34375 0.25 0  1.375 0.25 0  1.40625 0.25 0  1.4375 0.25 0  1.46875 0.25 0  1.5 0.25 0  0 0.28125 0  0.03125 0.28125 0  0.0625 0.28125 0  0.09375 0.28125 0  0.125 0.28125 0  0.15625 0.28125 0  0.1875 0.28125 0  0.21875 0.28125 0  0.25 0.28125 0  0.28125 0.28125 0  0.3125 0.28125 0  0.34375 0.28125 0  0.375 0.28125 0  0.40625 0.28125 0  0.4375 0.28125 0  0.46875 0.28125 0  0.5 0.28125 0  0.53125 0.28125 0  0.5625 0.28125 0  0.59375 0.28125 0  0.625 0.28125 0  0.65625 0.28125 0  0.6875 0.28125 0  0.71875 0.28125 0  0.75 0.28125 0  0.78125 0.28125 0  0.8125 0.28125 0  0.84375 0.28125 0  0.875 0.28125 0  0.90625 0.28125 0  0.9375 0.28125 0  0.96875 0.28125 0  1 0.28125 0  1.03125 0.28125 0  1.0625 0.28125 0  1.09375 0.28125 0  1.125 0.28125 0  1.15625 0.28125 0  1.1875 0.28125 0  1.21875 0.28125 0  1.25 0.28125 0  1.28125 0.28125 0  1.3125 0.28125 0  1.34375 0.28125 0  1.375 0.28125 0  1.40625 0.28125 0  1.4375 0.28125 0  1.46875 0.28125 0  1.5 0.28125 0  0 0.3125 0  0.03125 0.3125 0  0.0625 0.3125 0  0.09375 0.3125 0  0.125 0.3125 0  0.15625 0.3125 0  0.1875 0.3125 0  0.21875 0.3125 0  0.25 0.3125 0  0.28125 0.3125 0  0.3125 0.3125 0  0.34375 0.3125 0  0.375 0.3125 0  0.40625 0.3125 0  0.4375 0.3125 0  0.46875 0.3125 0  0.5 0.3125 0  0.53125 0.3125 0  0.5625 0.3125 0  0.59375 0.3125 0  0.625 0.3125 0  0.65625 0.3125 0  0.6875 0.3125 0  0.71875 0.3125 0  0.75 0.3125 0  0.78125 0.3125 0  0.8125 0.3125 0  0.84375 0.3125 0  0.875 0.3125 0  0.90625 0.3125 0  0.9375 0.3125 0  0.96875 0.3125 0  1 0.3125 0  1.03125 0.3125 0  1.0625 0.3125 0  1.09375 0.3125 0  1.125 0.3125 0  1.15625 0.3125 0  1.1875 0.3125 0  1.21875 0.3125 0  1.25 0.3125 0  1.28125 0.3125 0  1.3125 0.3125 0  1.34375 0.3125 0  1.375 0.3125 0  1.40625 0.3125 0  1.4375 0.3125 0  1.46875 0.3125 0  1.5 0.3125 0  0 0.34375 0  0.03125 0.34375 0  0.0625 0.34375 0  0.09375 0.34375 0  0.125 0.34375 0  0.15625 0.34375 0  0.1875 0.34375 0  0.21875 0.34375 0  0.25 0.34375 0  0.28125 0.34375 0  0.3125 0.34375 0  0.34375 0.34375 0  0.375 0.34375 0  0.40625 0.34375 0  0.4375 0.34375 0  0.46875 0.34375 0  0.5 0.34375 0  0.53125 0.34375 0  0.5625 0.34375 0  0.59375 0.34375 0  0.625 0.34375 0  0.65625 0.34375 0  0.6875 0.34375 0  0.71875 0.34375 0  0.75 0.34375 0  0.78125 0.34375 0  0.8125 0.34375 0  0.84375 0.34375 0  0.875 0.34375 0  0.90625 0.34375 0  0.9375 0.34375 0  0.96875 0.34375 0  1 0.34375 0  1.03125 0.34375 0  1.0625 0.34375 0  1.09375 0.34375 0  1.125 0.34375 0  1.15625 0.34375 0  1.1875 0.34375 0  1.21875 0.34375 0  1.25 0.34375 0  1.28125 0.34375 0  1.3125 0.34375 0  1.34375 0.34375 0  1.375 0.34375 0  1
[...]
<PointData  Scalars="f_49"> 
<DataArray  type="Float64"  Name="f_49"  format="ascii">1.0496815429358225e-01  9.9795098209153554e-02  9.5753291128840998e-02  9.1632688240068746e-02  8.7430268173735753e-02  8.3230972770614850e-02  7.9042296479193669e-02  7.4861350160120535e-02  7.0681365754250478e-02  6.6494856332788690e-02  6.2295350794584523e-02  5.8077998067270285e-02  5.3839601822150022e-02  4.9578333788164966e-02  4.5293335260226053e-02  4.0984338464964236e-02  3.6651378679971078e-02  3.2294619455885291e-02  2.7914284082154801e-02  2.3510672848932806e-02  1.9084241333097215e-02  1.4635714354439449e-02  1.0166210526941246e-02  5.6773532319192672e-03  1.1713466178443622e-03  -3.3489988459966718e-03  -7.8802976258824878e-03  -1.2418672904004233e-02  -1.6959879221057416e-02  -2.1499444877309187e-02  -2.6032815121332566e-02  -3.0555482351175851e-02  -3.5063099926738207e-02  -3.9551586680388780e-02  -4.4017247444650132e-02  -4.8456933099594320e-02  -5.2868300610885009e-02  -5.7250143469785741e-02  -6.1602913696799315e-02  -6.5929108116881324e-02  -7.0233832660779705e-02  -7.4525066875511484e-02  -7.8811391296063057e-02  -8.3110879215159944e-02  -8.7412569642500174e-02  -9.1860325822626404e-02  -9.5966261114645179e-02  -1.0022521052306936e-01  -1.0493977006456123e-01  1.0506610092672748e-01  9.9558834021234083e-02  9.5514162834477487e-02  9.1361112328365676e-02  8.7123037732511704e-02  8.2913952912073249e-02  7.8726342301393151e-02  7.4550795425363414e-02  7.0377842679090405e-02  6.6198952698846097e-02  6.2007076754519268e-02  5.7797069755654962e-02  5.3565612346205722e-02  4.9310864954741504e-02  4.5032029544181514e-02  4.0728943134971454e-02  3.6401771815230854e-02  3.2050825165939573e-02  2.7676481712408437e-02  2.3279202686228767e-02  1.8859607722893568e-02  1.4418586102786712e-02  9.9574176917405638e-03  5.4778787128517059e-03  9.8231044167422900e-04  -3.5263645808258294e-03  -8.0446841353216270e-03  -1.2568739401773331e-02  -1.7094303456863063e-02  -2.1616974265786959e-02  -2.6132312713251071e-02  -3.0635963124288082e-02  -3.5123754984591082e-02  -3.9591796473236449e-02  -4.4036585877856825e-02  -4.8455171468946269e-02  -5.2845407980461001e-02  -5.7206315734604100e-02  -6.1538575895115050e-02  -6.5845054760036020e-02  -7.0131172759978364e-02  -7.4405732156215862e-02  -7.8677960907308525e-02  -8.2967488638414730e-02  -8.7268684074374797e-02  -9.1690129311715995e-02  -9.5863296317465610e-02  -1.0022396333553248e-01  -1.0527641017820642e-01  1.0404989716059343e-01  9.8872406060864018e-02  9.4720310583511227e-02  9.0556055665408558e-02  8.6288859402544507e-02  8.2085315582269655e-02  7.7918044323135829e-02  7.3768916089158504e-02  6.9625523299611206e-02  6.5477889868945524e-02  6.1318061468704291e-02  5.7140423112364010e-02  5.2941439408758749e-02  4.8719214048567494e-02  4.4472982232952922e-02  4.0202657150909267e-02  3.5908492597583837e-02  3.1590878210666133e-02  2.7250255310907006e-02  2.2887129131058444e-02  1.8502150292679816e-02  1.4096238082137330e-02  9.6707171367600292e-03  5.2274380609006622e-03  7.6885413998451901e-04  -3.7019662886902710e-03  -8.1813986185253137e-03  -1.2665382159613036e-02  -1.7149578352832869e-02  -2.1629537975317848e-02  -2.6100852197815407e-02  -3.0559273393060381e-02  -3.5000806800458396e-02  -3.9421788255226096e-02  -4.3818979927183303e-02  -4.8189717958881786e-02  -5.2532168590896842e-02  -5.6845687292515823e-02  -6.1131358734860801e-02  -6.5392488922748057e-02  -6.9635225308705501e-02  -7.3868890412489896e-02  -7.8104670152529060e-02  -8.2361099192914261e-02  -8.6640704772571547e-02  -9.1034104741705382e-02  -9.5202377344693556e-02  -9.9528248042254339e-02  -1.0453793016897769e-01  1.0334123015971944e-01  9.8309354265078142e-02  9.4077845740870289e-02  8.9942092431678000e-02  8.5648711323135951e-02  8.1445089236437410e-02  7.7283808215478547e-02  7.3145951096680525e-02  6.9018420211884562e-02  6.4889815123623976e-02  6.0751149422099048e-02  5.6596107848324709e-02  5.2420716597457492e-02  4.8222836441905025e-02  4.4001586164732834e-02  3.9756832206959622e-02  3.5488805242202673e-02  3.1197862342819949e-02  2.6884383243234552e-02  2.2548777581339087e-02  1.8191577009392300e-02  1.3813584169046935e-02  9.4160457104077982e-03  5.0008103074000634e-03  5.7043053901166454e-04  -3.8718239614566915e-03  -8.3220536034216645e-03  -1.2775900129665764e-02  -1.7228763762411423e-02  -2.1676020532978148e-02  -2.6113203379108281e-02  -3.0536130187364768e-02  -3.4940984537914208e-02  -3.9324372932526774e-02  -4.3683399318408707e-02  -4.8015798157327629e-02  -5.2320185916729711e-02  -5.6596428620182229e-02  -6.0846192827207997e-02  -6.5073463653040536e-02  -6.9285131706418285e-02  -7.3491373182058867e-02  -7.7703927417987637e-02  -8.1941998744810687e-02  -8.6206504072809984e-02  -9.0588041270535810e-02  -9.4741621502439088e-02  -9.9040125583725505e-02  -1.0405950397371673e-01  1.0271927104904227e-01  9.7717354238088000e-02  9.3473687847683770e-02  8.9363428379509155e-02  8.5054970019917714e-02  8.0855243582588693e-02  7.6696324658839313e-02  7.2565538017348663e-02  6.8449322993155856e-02  6.4335226871937087e-02  6.0213613712094653e-02  5.6077560176894824e-02  5.1922669365238261e-02  4.7746522394206632e-02  4.3548066535046365e-02  3.9327058716005468e-02  3.5083636424074402e-02  3.0818041540045513e-02  2.6530490429545021e-02  2.2221172892347429e-02  1.7890359318268805e-02  1.3538590775973318e-02  9.1669144549161013e-03  4.7771098729950156e-03  3.7183987310942379e-04  -4.0453306964685874e-03  -8.4700703121507633e-03  -1.2897541568446426e-02  -1.7322719412546324e-02  -2.1740689994624550e-02  -2.6146875339497770e-02  -3.0537165773783660e-02  -3.4907976935975985e-02  -3.9256270533596357e-02  -4.3579592996925536e-02  -4.7876181646069486e-02  -5.2145200976617921e-02  -5.6387103760974826e-02  -6.0604178278462720e-02  -6.4801046738055257e-02  -6.8985217906640778e-02  -7.3167336129399282e-02  -7.7359381167037111e-02  -8.1580052454063690e-02  -8.5829404817515859e-02  -9.0195113327108126e-02  -9.4332370546180794e-02  -9.8606808632121984e-02  -1.0361292450948212e-01  1.0215162442410690e-01  9.7162793504737735e-02  9.2929915295820203e-02  8.8831700015920348e-02  8.4519216074033732e-02  8.0323808494508639e-02  7.6165875694202620e-02  7.2040228837146822e-02  6.7931972449402092e-02  6.3828478556728685e-02  5.9719883435544213e-02  5.5598851995589033e-02  5.1460693883033731e-02  4.7302762819190547e-02  4.3123853285069097e-02  3.8923608152770607e-02  3.4702048745147103e-02  3.0459256176740779e-02  2.6195206864964432e-02  2.1909756020648381e-02  1.7602761344361950e-02  1.3274332338426759e-02  8.9251658450703736e-03  4.5568904992954610e-03  1.7230886410941949e-04  -4.2245691624228981e-03  -8.6287452464791792e-03  -1.3034649406419654e-02  -1.7436626524704991e-02  -2.1829357892527185e-02  -2.6208136173014263e-02  -3.0568982926656597e-02  -3.4908651465836542e-02  -3.9224581666219893e-02  -4.3514880005493417e-02  -4.7778383089892885e-02  -5.2014867214356518e-02  -5.6225392489379869e-02  -6.0412833304578237e-02  -6.4582345722113826e-02  -6.8741868262777645e-02  -7.2902269906198136e-02  -7.7075451578165741e-02  -8.1279529099611281e-02  -8.5513633404227560e-02  -8.9863540035505896e-02  -9.3985352329620880e-02  -9.8236555151987121e-02  -1.0323051480338430e-01  1.0163453094317537e-01  9.6654329941685949e-02  9.2433883805678352e-02  8.8342856365135267e-02  8.4032237661743781e-02  7.9840068033645906e-02  7.5683550323812201e-02  7.1562086546353182e-02  6.7459555867131163e-02  6.3363901423814054e-02  5.9265178986341406e-02  5.5155843555335628e-02  5.1031059818693943e-02  4.6888045925590226e-02  4.2725510556315523e-02  3.8543026966460822e-02  3.4340526580097293e-02  3.0117929121981961e-02  2.5874928498158745e-02  2.1610943147081518e-02  1.7325248187650914e-02  1.3017302066085290e-02  8.6872375269443983e-03  4.3364111982731575e-03  -3.2182746129342939e-05  -4.4138440131754790e-03  -8.8025357236655652e-03  -1.3191580989628440e-02  -1.7574431071702180e-02  -2.1945261928313295e-02  -2.6299285938889486e-02  -3.0632802678023503e-02  -3.4943089158572103e-02  -3.9228242904591266e-02  -4.3487075442985468e-02  -4.7719119873131884e-02  -5.1924809082338645e-02  -5.6105802271145665e-02  -6.0265499941276321e-02  -6.4409484795248148e-02  -6.8545985074725632e-02  -7.2685946996071671e-02  -7.6841111774560253e-02  -8.1029017162885436e-02  -8.5248182796919814e-02  -8.9582795973780716e-02  -9.3690270803930470e-02  -9.7920670583311262e-02  -1.0290330512931248e-01  1.0116767031354018e-01  9.6194041726969159e-02  9.1984105981989306e-02  8.7898582613221671e-02  8.3591014899007096e-02  7.9401251773674658e-02  7.5246516332006616e-02  7.1128158756025614e-02  6.7029655774242664e-02  6.2939637266747145e-02  5.8848093566195817e-02  5.4747451363819442e-02  5.0632844582176900e-02  4.6501455520768273e-02  4.2351996885485084e-02  3.8184053398463029e-02  3.3997541357757052e-02  2.9792271918898498e-02  2.5567663035879425e-02  2.1322617569923916e-02  1.7055633601559109e-02  1.2765215661380350e-02  8.4505985618526878e-03  4.1126585118237751e-03  -2.4533912831135575e-04  -4.6175876611282063e-03  -8.9963954496943832e-03  -1.3373407172073378e-02  -1.7740850078410041e-02  -2.2092358069479772e-02  -2.6423250402390287e-02  -3.0730400188945652e-02  -3.5011912065265112e-02  -3.9266792787027979e-02  -4.3494733502609607e-02  -4.7696059772489544e-02  -5.1871887823583838e-02  -5.6024446408197121e-02  -6.0157590316784672e-02  -6.4277230811810027e-02  -6.8391782952809260e-02  -7.2512192103455678e-02  -7.6650024270884992e-02  -8.0822322119951329e-02  -8.5027184111174783e-02  -8.9347481392460779e-02  -9.3441989522562829e-02  -9.7653854517006963e-02  -1.0262644337733176e-01  1.0075076710363851e-01  9.5782103648838421e-02  9.1580268993638622e-02  8.7498994462578916e-02  8.3194109579513884e-02  7.9006162649387188e-02  7.4852900444034240e-02  7.0736513319871866e-02  6.6640603709039237e-02  6.2554254335142292e-02  5.8467443917663425e-02  5.4372678359874631e-02  5.0265123639581112e-02  4.6142011069436523e-02  4.2002146570900636e-02  3.7845230165638941e-02  3.3671283046055038e-02  2.9480125838677877e-02  2.5270984741582785e-02  2.1042219715674132e-02  1.6791342171580629e-02  1.2515472611564790e-02  8.2123919885647295e-03  3.8821018114466419e-03  -4.7174949065554103e-04  -4.8415082653243281e-03  -9.2167578917978742e-03  -1.3586578769753862e-02  -1.7941611769272732e-02  -2.2275105993293211e-02  -2.6582950390870715e-02  -3.0863128294234040e-02  -3.5115032605498926e-02  -3.9338903596623856e-02  -4.3535498351022273e-02  -4.7706008164154934e-02  -5.1852223889300171e-02  -5.5976881360026778e-02  -6.0084197034415088e-02  -6.4180309040499192e-02  -6.8273729039343214e-02  -7.2375345187792095e-02  -7.6496546164653553e-02  -8.0653944588965340e-02  -8.4845336774592342e-02  -8.9152461955395029e-02  -9.3235374188922290e-02  -9.7431071602353564e-02  -1.0239491158193781e-01  1.0038343337932713e-01  9.5418421882810467e-02  9.1222505277483018e-02  8.7144355883782387e-02  8.2841373265287330e-02  7.8654557023563387e-02  7.4502072284014398e-02  7.0386582331011652e-02  6.6291909544674996e-02  6.2207379969170258e-02  5.8123016500932524e-02  5.4031417022829875e-02  4.9927800240347341e-02  4.5809497218484409e-02  4.1675474524903208e-02  3.7525654966838275e-02  3.3360319047371377e-02  2.9179493241912841e-02  2.4982418177730416e-02  2.0766994233210236e-02  1.6529577451646908e-02  1.2265298283601365e-02  7.9695242880971212e-03  3.6405869057483057e-03  -7.1734478926172148e-04  -5.0933648591630623e-03  -9.4723800648777029e-03  -1.3839549042648402e-02  -1.8183708798044013e-02  -2.2498378641980097e-02  -2.6780993039827367e-02  -3.1031532155349786e-02  -3.5251301862950390e-02  -3.9442129006717140e-02  -4.3605977892196800e-02  -4.7744906469498916e-02  -5.1861299643501134e-02  -5.5958280135970449e-02  -6.0040294575164362e-02  -6.4113585202684550e-02  -6.8186661718752664e-02  -7.2270294494851020e-02  -7.6375679892355344e-02  -8.0519039503315001e-02  -8.4697930528177215e-02  -8.8993104089034145e-02  -9.3065760028154004e-02  -9.7247536152969119e-02  -1.0220390708047010e-01  1.0006527422879979e-01  9.5102868323702461e-02  9.0911069708065007e-02  8.6835060030003242e-02  8.2533154168053291e-02  7.8346756480087168e-02  7.4194283709589665e-02  7.0078702763872250e-02  6.5983985723514826e-02  6.1899581520718706e-02  5.7815550805990545e-02  5.3724533854783318e-02  4.9621782367885330e-02  4.5504722543852377e-02  4.1372500633775573e-02  3.7225337323502854e-02  3.3063928383650784e-02  2.8888778429219514e-02  2.4699514335745312e-02  2.0493881432464951e-02  1.6267118258106519e-02  1.2011556083775819e-02  7.7184938424438437e-03  3.3828865350100908e-03  -9.9046299078266718e-04  -5.3845047845193974e-03  -9.7757502508375709e-03  -1.4143508504523261e-02  -1.8475335067509740e-02  -2.2766810498608101e-02  -2.7018739624307071e-02  -3.1234386285154903e-02  -3.5417660846116833e-02  -3.9572225519285090e-02  -4.3701234539745497e-02  -4.7807462181064492e-02  -5.1893686946018910e-02  -5.5963213835396049e-02  -6.0020534498900178e-02  -6.4071841775567878e-02  -6.8125527829375490e-02  -7.2192172823834541e-02  -7.6282749701836530e-02  -8.0413106545779295e-02  -8.4580589859243244e-02  -8.8865083486349805e-02  -9.2928782449989492e-02  -9.7098726068212474e-02  -1.0204879846110018e-01  9.9796019849325054e-02  9.4835415124119415e-02  9.0646331706377745e-02  8.6571657698184715e-02  8.2270122532673101e-02  7.8083524857814557e-02  7.3930391738257217e-02  6.9813882084107798e-02  6.5718026417564815e-02  6.1632309878836937e-02  5.7546770769745861e-02  5.3454010943293474e-02  4.9349245682625109e-02  4.5229919203862136e-02  4.1095293104719981e-02  3.6945867881746482e-02  3.2782838055320083e-02  2.8607471681065321e-02  2.4420306117950465e-02  2.0219627577129185e-02  1.6000151575975858e-02  1.1750523735037969e-02  7.4552826472080516e-03  3.1020362117988296e-03  -1.3037908027654600e-03  -5.7325027952676577e-03  -1.0145002428910133e-02  -1.4512698864321770e-02  -1.8824803301201492e-02  -2.3083013635300277e-02  -2.7294437756467369e-02  -3.1467092687102724e-02  -3.5607924043631972e-02  -3.9722306849493676e-02  -4.3814239155426732e-02  -4.7886819071252425e-02  -5.1942858530378347e-02  -5.5985543911319137e-02  -6.0019174054669194e-02  -6.4049713421573395e-02  -6.8085310075914784e-02  -7.2136275958446711e-02  -7.6213321614085242e-02  -8.0331929414214007e-02  -8.4489244643302583e-02  -8.8764394830581003e-02  -9.2820411480912551e-02  -9.6980466142444530e-02  -1.0192530792617026e-01  9.9575579313549517e-02  9.4616178288246047e-02  9.0428771852485226e-02  8.6354829569768199e-02  8.2053151780937209e-02  7.7865912479216010e-02  7.3711645569473683e-02  6.9593620529754027e-02  6.5495848468490589e-02  6.1407775120382577e-02  5.7319337860595336e-02  5.3223003704135449e-02  4.9113835833964850e-02  4.4989145025728615e-02  4.0848129470628054e-02  3.6691383654551595e-02  3.2520481860058160e-02  2.8337552189720595e-02  2.4144526692214355e-02  1.9941433694798883e-02  1.5724141856474028e-02  1.1477449765646177e-02  7.1753494643773076e-03  2.7880471711363708e-03  -1.6781120332587376e-03  -6.1653275499861746e-03  -1.0605568060326469e-02  -1.4962709429594028e-02  -1.9236927349665072e-02  -2.3443689622028963e-02  -2.7599984686816022e-02  -3.1719357851557474e-02  -3.5811283009992347e-02  -3.9881970993140871e-02  -4.3935419743406923e-02  -4.7974367412429546e-02  -5.2001145962301036e-02  -5.6018452492240578e-02  -6.0030132135244808e-02  -6.4041742572626889e-02  -6.8061071204056481e-02  -7.2098095182312555e-02  -7.6163230675712679e-02  -8.0271606604251686e-02  -8.4420171261282456e-02  -8.8687408866766737e-02  -9.2737024007439106e-02  -9.6889036640902815e-02  -1.0182963886093110e-01  9.9404024616068232e-02  9.4445398502031333e-02  9.0258943235985351e-02  8.6185324786856560e-02  8.1883211078485119e-02  7.7695113405535421e-02  7.3539507713858421e-02  6.9419716793032632e-02  6.5319678965401015e-02  6.1228744443673482e-02  5.7136684080928209e-02  5.3035741773887410e-02  4.8920700552210761e-02  4.4788545625879743e-02  4.0638132939435051e-02  3.6469765257608609e-02  3.2284929860086783e-02  2.8086165861069913e-02  2.3876717351079147e-02  1.9659587383403891e-02  1.5434721074526897e-02  1.1186147649406484e-02  6.8737999771810955e-03  2.4250064073889875e-03  -2.1479787611116590e-03  -6.7247914601100767e-03  -1.1187543123134325e-02  -1.5502522516020177e-02  -1.9704176323897447e-02  -2.3832579650275413e-02  -2.7916268976532089e-02  -3.1972519469738808e-02  -3.6010985565616480e-02  -4.0036796424521619e-02  -4.4052604283430156e-02  -4.8059903524107231e-02  -5.2059983343715949e-02  -5.6054699010388058e-02  -6.0047224284929826e-02  -6.4042579614841000e-02  -6.8048118355788625e-02  -7.2073451343592235e-02  -7.6128693049996532e-02  -8.0228649742488334e-02  -8.4370083385017017e-02  -8.8630959837540338e-02  -9.2675490169224481e-02  -9.6821264973016533e-02  -1.0175857576428636e-01  9.9281529287934503e-02  9.4323380164652054e-02  9.0137402937851330e-02  8.6063875044952470e-02  8.1761246695162715e-02  7.7572309673329759e-02  7.3415454413947034e-02  6.9294023606545768e-02  6.5191862719350735e-02  6.1098205633283276e-02  5.7002633189279672e-02  5.2897126941607413e-02  4.8776115346654221e-02  4.4636116738643997e-02  4.0475385518256371e-02  3.6293475733213974e-02  3.2091021184774027e-02  2.7869760629930206e-02  2.3632743373346716e-02  1.9384964676298973e-02  1.5132131147521962e-02  1.0867808326289726e-02  6.5435064276098635e-03  1.9871619626182458e-03  -2.7580424943444920e-03  -7.4538007734013577e-03  -1.1906348129173809e-02  -1.6112505646490902e-02  -2.0189867988738938e-02  -2.4210532198763308e-02  -2.8208419465000478e-02  -3.2197866105394435e-02  -3.6184209317294158e-02  -4.0168882474231164e-02  -4.4151769208363188e-02  -4.8132373120470022e-02  -5.2110560390831201e-02  -5.6087159970364918e-02  -6.0064593860900815e-02  -6.4047320975687369e-02  -6.8042266507684135e-02  -7.2058701300866890e-02  -7.6106470737743015e-02  -8.0200118419331459e-02  -8.4336245620659167e-02  -8.8592442831078699e-02  -9.2633259500977339e-02  -9.6774598321186373e-02  -1.0170955013629029e-01  9.9208291311816910e-02  9.4250414794996018e-02  9.0064630456690178e-02  8.5991097624741095e-02  8.1688055805519633e-02  7.7498505446837868e-02  7.3340756835696866e-02  6.9218161968615480e-02  6.5114490178530937e-02  6.1018883266745941e-02  5.6920771404522272e-02  5.2811922493564922e-02  4.8686461554926536e-02  4.4540477037895369e-02  4.0371607685785772e-02  3.6178512861843856e-02  3.1960513694963381e-02  2.7717412136443683e-02  2.3449613072862138e-02  1.9159064328838946e-02  1.4850279218024454e-02  1.0530103581225560e-02  6.1762191406377854e-03  1.4692294408648263e-03  -3.4735636706337363e-03  -8.3138886300688428e-03  -1.2705775419079308e-02  -1.6699134460013906e-02  -2.0605585078905558e-02  -2.4507670302198574e-02  -2.8425192047574484e-02  -3.2358702136221884e-02  -3.6304690339087405e-02  -4.0259238078388569e-02  -4.4218970057848181e-02  -4.8181350817997605e-02  -5.2144926997963116e-02  -5.6109643475025624e-02  -6.0077310156607423e-02  -6.4051949083706095e-02  -6.8040164450084928e-02  -7.2050982643328015e-02  -7.6094058876714721e-02  -8.0183766711663024e-02  -8.4316590815393777e-02  -8.8569908205863662e-02  -9.2608438940944102e-02  -9.6747161609012741e-02  -1.0168068705091403e-01  9.9184463564633105e-02  9.4226711056295445e-02  9.0040952555428266e-02  8.5967406553906861e-02  8.1664171350296189e-02  7.7474373480756517e-02  7.3316272379558969e-02  6.9193235541250259e-02  6.5089002441132152e-02  6.0992685715465768e-02  5.6893662468711290e-02  5.2783624561338137e-02  4.8656585918797790e-02  4.4508472622265760e-02  4.0336680763088842e-02  3.6139495174383481e-02  3.1915636219387290e-02  2.7663902310604845e-02  2.3382996047846136e-02  1.9071713145928482e-02  1.4729882118861250e-02  1.0362536190943477e-02  5.9912035724451777e-03  1.0867759307997783e-03  -3.8871072852291436e-03  -8.7958723869657612e-03  -1.3298802819620967e-02  -1.7032214208388883e-02  -2.0799444685001323e-02  -2.4