<?xml version="1.0"?>
<VTKFile type="UnstructuredGrid"  version="0.1"  >
<UnstructuredGrid>
<Piece  NumberOfPoints="1617" NumberOfCells="3072">
<Points>
<DataArray  type="Float64"  NumberOfComponents="3"  format="ascii">0 0 0  0.03125 0 0  0.0625 0 0  0.09375 0 0  0.125 0 0  0.15625 0 0  0.1875 0 0  0.21875 0 0  0.25 0 0  0.28125 0 0  0.3125 0 0  0.34375 0 0  0.375 0 0  0.40625 0 0  0.4375 0 0  0.46875 0 0  0.5 0 0  0.53125 0 0  0.5625 0 0  0.59375 0 0  0.625 0 0  0.65625 0 0  0.6875 0 0  0.71875 0 0  0.75 0 0  0.78125 0 0  0.8125 0 0  0.84375 0 0  0.875 0 0  0.90625 0 0  0.9375 0 0  0.96875 0 0  1 0 0  1.03125 0 0  1.0625 0 0  1.09375 0 0  1.125 0 0  1.15625 0 0  1.1875 0 0  1.21875 0 0  1.25 0 0  1.28125 0 0  1.3125 0 0  1.34375 0 0  1.375 0 0  1.40625 0 0  1.4375 0 0  1.46875 0 0  1.5 0 0  0 0.03125 0  0.03125 0.03125 0  0.0625 0.03125 0  0.09375 0.03125 0  0.125 0.03125 0  0.15625 0.03125 0  0.1875 0.03125 0  0.21875 0.03125 0  0.25 0.03125 0  0.28125 0.03125 0  0.3125 0.03125 0  0.34375 0.03125 0  0.375 0.03125 0  0.40625 0.03125 0  0.4375 0.03125 0  0.46875 0.03125 0  0.5 0.03125 0  0.53125 0.03125 0  0.5625 0.03125 0  0.59375 0.03125 0  0.625 0.03125 0  0.65625 0.03125 0  0.6875 0.03125 0  0.71875 0.03125 0  0.75 0.03125 0  0.78125 0.03125 0  0.8125 0.03125 0  0.84375 0.03125 0  0.875 0.03125 0  0.90625 0.03125 0  0.9375 0.03125 0  0.96875 0.03125 0  1 0.03125 0  1.03125 0.03125 0  1.0625 0.03125 0  1.09375 0.03125 0  1.125 0.03125 0  1.15625 0.03125 0  1.1875 0.03125 0  1.21875 0.03125 0  1.25 0.03125 0  1.28125 0.03125 0  1.3125 0.03125 0  1.34375 0.03125 0  1.375 0.03125 0  1.40625 0.03125 0  1.4375 0.03125 0  1.46875 0.03125 0  1.5 0.03125 0  0 0.0625 0  0.03125 0.0625 0  0.0625 0.0625 0  0.09375 0.0625 0  0.125 0.0625 0  0.15625 0.0625 0  0.1875 0.0625 0  0.21875 0.0625 0  0.25 0.0625 0  0.28125 0.0625 0  0.3125 0.0625 0  0.34375 0.0625 0  0.375 0.0625 0  0.40625 0.0625 0  0.4375 0.0625 0  0.46875 0.0625 0  0.5 0.0625 0  0.53125 0.0625 0  0.5625 0.0625 0  0.59375 0.0625 0  0.625 0.0625 0  0.65625 0.0625 0  0.6875 0.0625 0  0.71875 0.0625 0  0.75 0.0625 0  0.78125 0.0625 0  0.8125 0.0625 0  0.84375 0.0625 0  0.875 0.0625 0  0.90625 0.0625 0  0.9375 0.0625 0  0.96875 0.0625 0  1 0.0625 0  1.03125 0.0625 0  1.0625 0.0625 0  1.09375 0.0625 0  1.125 0.0625 0  1.15625 0.0625 0  1.1875 0.0625 0  1.21875 0.0625 0  1.25 0.0625 0  1.28125 0.0625 0  1.3125 0.0625 0  1.34375 0.0625 0  1.375 0.0625 0  1.40625 0.0625 0  1.4375 0.0625 0  1.46875 0.0625 0  1.5 0.0625 0  0 0.09375 0  0.03125 0.09375 0  0.0625 0.09375 0  0.09375 0.09375 0  0.125 0.09375 0  0.15625 0.09375 0  0.1875 0.09375 0  0.21875 0.09375 0  0.25 0.09375 0  0.28125 0.09375 0  0.3125 0.09375 0  0.34375 0.09375 0  0.375 0.09375 0  0.40625 0.09375 0  0.4375 0.09375 0  0.46875 0.09375 0  0.5 0.09375 0  0.53125 0.09375 0  0.5625 0.09375 0  0.59375 0.09375 0  0.625 0.09375 0  0.65625 0.09375 0  0.6875 0.09375 0  0.71875 0.09375 0  0.75 0.09375 0  0.78125 0.09375 0  0.8125 0.09375 0  0.84375 0.09375 0  0.875 0.09375 0  0.90625 0.09375 0  0.9375 0.09375 0  0.96875 0.09375 0  1 0.09375 0  1.03125 0.09375 0  1.0625 0.09375 0  1.09375 0.09375 0  1.125 0.09375 0  1.15625 0.09375 0  1.1875 0.09375 0  1.21875 0.09375 0  1.25 0.09375 0  1.28125 0.09375 0  1.3125 0.09375 0  1.34375 0.09375 0  1.375 0.09375 0  1.40625 0.09375 0  1.4375 0.09375 0  1.46875 0.09375 0  1.5 0.09375 0  0 0.125 0  0.03125 0.125 0  0.0625 0.125 0  0.09375 0.125 0  0.125 0.125 0  0.15625 0.125 0  0.1875 0.125 0  0.21875 0.125 0  0.25 0.125 0  0.28125 0.125 0  0.3125 0.125 0  0.34375 0.125 0  0.375 0.125 0  0.40625 0.125 0  0.4375 0.125 0  0.46875 0.125 0  0.5 0.125 0  0.53125 0.125 0  0.5625 0.125 0  0.59375 0.125 0  0.625 0.125 0  0.65625 0.125 0  0.6875 0.125 0  0.71875 0.125 0  0.75 0.125 0  0.78125 0.125 0  0.8125 0.125 0  0.84375 0.125 0  0.875 0.125 0  0.90625 0.125 0  0.9375 0.125 0  0.96875 0.125 0  1 0.125 0  1.03125 0.125 0  1.0625 0.125 0  1.09375 0.125 0  1.125 0.125 0  1.15625 0.125 0  1.1875 0.125 0  1.21875 0.125 0  1.25 0.125 0  1.28125 0.125 0  1.3125 0.125 0  1.34375 0.125 0  1.375 0.125 0  1.40625 0.125 0  1.4375 0.125 0  1.46875 0.125 0  1.5 0.125 0  0 0.15625 0  0.03125 0.15625 0  0.0625 0.15625 0  0.09375 0.15625 0  0.125 0.15625 0  0.15625 0.15625 0  0.1875 0.15625 0  0.21875 0.15625 0  0.25 0.15625 0  0.28125 0.15625 0  0.3125 0.15625 0  0.34375 0.15625 0  0.375 0.15625 0  0.40625 0.15625 0  0.4375 0.15625 0  0.46875 0.15625 0  0.5 0.15625 0  0.53125 0.15625 0  0.5625 0.15625 0  0.59375 0.15625 0  0.625 0.15625 0  0.65625 0.15625 0  0.6875 0.15625 0  0.71875 0.15625 0  0.75 0.15625 0  0.78125 0.15625 0  0.8125 0.15625 0  0.84375 0.15625 0  0.875 0.15625 0  0.90625 0.15625 0  0.9375 0.15625 0  0.96875 0.15625 0  1 0.15625 0  1.03125 0.15625 0  1.0625 0.15625 0  1.09375 0.15625 0  1.125 0.15625 0  1.15625 0.15625 0  1.1875 0.15625 0  1.21875 0.15625 0  1.25 0.15625 0  1.28125 0.15625 0  1.3125 0.15625 0  1.34375 0.15625 0  1.375 0.15625 0  1.40625 0.15625 0  1.4375 0.15625 0  1.46875 0.15625 0  1.5 0.15625 0  0 0.1875 0  0.03125 0.1875 0  0.0625 0.1875 0  0.09375 0.1875 0  0.125 0.1875 0  0.15625 0.1875 0  0.1875 0.1875 0  0.21875 0.1875 0  0.25 0.1875 0  0.28125 0.1875 0  0.3125 0.1875 0  0.34375 0.1875 0  0.375 0.1875 0  0.40625 0.1875 0  0.4375 0.1875 0  0.46875 0.1875 0  0.5 0.1875 0  0.53125 0.1875 0  0.5625 0.1875 0  0.59375 0.1875 0  0.625 0.1875 0  0.65625 0.1875 0  0.6875 0.1875 0  0.71875 0.1875 0  0.75 0.1875 0  0.78125 0.1875 0  0.8125 0.1875 0  0.84375 0.1875 0  0.875 0.1875 0  0.90625 0.1875 0  0.9375 0.1875 0  0.96875 0.1875 0  1 0.1875 0  1.03125 0.1875 0  1.0625 0.1875 0  1.09375 0.1875 0  1.125 0.1875 0  1.15625 0.1875 0  1.1875 0.1875 0  1.21875 0.1875 0  1.25 0.1875 0  1.28125 0.1875 0  1.3125 0.1875 0  1.34375 0.1875 0  1.375 0.1875 0  1.40625 0.1875 0  1.4375 0.1875 0  1.46875 0.1875 0  1.5 0.1875 0  0 0.21875 0  0.03125 0.21875 0  0.0625 0.21875 0  0.09375 0.21875 0  0.125 0.21875 0  0.15625 0.21875 0  0.1875 0.21875 0  0.21875 0.21875 0  0.25 0.21875 0  0.28125 0.21875 0  0.3125 0.21875 0  0.34375 0.21875 0  0.375 0.21875 0  0.40625 0.21875 0  0.4375 0.21875 0  0.46875 0.21875 0  0.5 0.21875 0  0.53125 0.21875 0  0.5625 0.21875 0  0.59375 0.21875 0  0.625 0.21875 0  0.65625 0.21875 0  0.6875 0.21875 0  0.71875 0.21875 0  0.75 0.21875 0  0.78125 0.21875 0  0.8125 0.21875 0  0.84375 0.21875 0  0.875 0.21875 0  0.90625 0.21875 0  0.9375 0.21875 0  0.96875 0.21875 0  1 0.21875 0  1.03125 0.21875 0  1.0625 0.21875 0  1.09375 0.21875 0  1.125 0.21875 0  1.15625 0.21875 0  1.1875 0.21875 0  1.21875 0.21875 0  1.25 0.21875 0  1.28125 0.21875 0  1.3125 0.21875 0  1.34375 0.21875 0  1.375 0.21875 0  1.40625 0.21875 0  1.4375 0.21875 0  1.46875 0.21875 0  1.5 0.21875 0  0 0.25 0  0.03125 0.25 0  0.0625 0.25 0  0.09375 0.25 0  0.125 0.25 0  0.15625 0.25 0  0.1875 0.25 0  0.21875 0.25 0  0.25 0.25 0  0.28125 0.25 0  0.3125 0.25 0  0.34375 0.25 0  0.375 0.25 0  0.40625 0.25 0  0.4375 0.25 0  0.46875 0.25 0  0.5 0.25 0  0.53125 0.25 0  0.5625 0.25 0  0.59375 0.25 0  0.625 0.25 0  0.65625 0.25 0  0.6875 0.25 0  0.71875 0.25 0  0.75 0.25 0  0.78125 0.25 0  0.8125 0.25 0  0.84375 0.25 0  0.875 0.25 0  0.90625 0.25 0  0.9375 0.25 0  0.96875 0.25 0  1 0.25 0  1.03125 0.25 0  1.0625 0.25 0  1.09375 0.25 0  1.125 0.25 0  1.15625 0.25 0  1.1875 0.25 0  1.21875 0.25 0  1.25 0.25 0  1.28125 0.25 0  1.3125 0.25 0  1.34375 0.25 0  1.375 0.25 0  1.40625 0.25 0  1.4375 0.25 0  1.46875 0.25 0  1.5 0.25 0  0 0.28125 0  0.03125 0.28125 0  0.0625 0.28125 0  0.09375 0.28125 0  0.125 0.28125 0  0.15625 0.28125 0  0.1875 0.28125 0  0.21875 0.28125 0  0.25 0.28125 0  0.28125 0.28125 0  0.3125 0.28125 0  0.34375 0.28125 0  0.375 0.28125 0  0.40625 0.28125 0  0.4375 0.28125 0  0.46875 0.28125 0  0.5 0.28125 0  0.53125 0.28125 0  0.5625 0.28125 0  0.59375 0.28125 0  0.625 0.28125 0  0.65625 0.28125 0  0.6875 0.28125 0  0.71875 0.28125 0  0.75 0.28125 0  0.78125 0.28125 0  0.8125 0.28125 0  0.84375 0.28125 0  0.875 0.28125 0  0.90625 0.28125 0  0.9375 0.28125 0  0.96875 0.28125 0  1 0.28125 0  1.03125 0.28125 0  1.0625 0.28125 0  1.09375 0.28125 0  1.125 0.28125 0  1.15625 0.28125 0  1.1875 0.28125 0  1.21875 0.28125 0  1.25 0.28125 0  1.28125 0.28125 0  1.3125 0.28125 0  1.34375 0.28125 0  1.375 0.28125 0  1.40625 0.28125 0  1.4375 0.28125 0  1.46875 0.28125 0  1.5 0.28125 0  0 0.3125 0  0.03125 0.3125 0  0.0625 0.3125 0  0.09375 0.3125 0  0.125 0.3125 0  0.15625 0.3125 0  0.1875 0.3125 0  0.21875 0.3125 0  0.25 0.3125 0  0.28125 0.3125 0  0.3125 0.3125 0  0.34375 0.3125 0  0.375 0.3125 0  0.40625 0.3125 0  0.4375 0.3125 0  0.46875 0.3125 0  0.5 0.3125 0  0.53125 0.3125 0  0.5625 0.3125 0  0.59375 0.3125 0  0.625 0.3125 0  0.65625 0.3125 0  0.6875 0.3125 0  0.71875 0.3125 0  0.75 0.3125 0  0.78125 0.3125 0  0.8125 0.3125 0  0.84375 0.3125 0  0.875 0.3125 0  0.90625 0.3125 0  0.9375 0.3125 0  0.96875 0.3125 0  1 0.3125 0  1.03125 0.3125 0  1.0625 0.3125 0  1.09375 0.3125 0  1.125 0.3125 0  1.15625 0.3125 0  1.1875 0.3125 0  1.21875 0.3125 0  1.25 0.3125 0  1.28125 0.3125 0  1.3125 0.3125 0  1.34375 0.3125 0  1.375 0.3125 0  1.40625 0.3125 0  1.4375 0.3125 0  1.46875 0.3125 0  1.5 0.3125 0  0 0.34375 0  0.03125 0.34375 0  0.0625 0.34375 0  0.09375 0.34375 0  0.125 0.34375 0  0.15625 0.34375 0  0.1875 0.34375 0  0.21875 0.34375 0  0.25 0.34375 0  0.28125 0.34375 0  0.3125 0.34375 0  0.34375 0.34375 0  0.375 0.34375 0  0.40625 0.34375 0  0.4375 0.34375 0  0.46875 0.34375 0  0.5 0.34375 0  0.53125 0.34375 0  0.5625 0.34375 0  0.59375 0.34375 0  0.625 0.34375 0  0.65625 0.34375 0  0.6875 0.34375 0  0.71875 0.34375 0  0.75 0.34375 0  0.78125 0.34375 0  0.8125 0.34375 0  0.84375 0.34375 0  0.875 0.34375 0  0.90625 0.34375 0  0.9375 0.34375 0  0.96875 0.34375 0  1 0.34375 0  1.03125 0.34375 0  1.0625 0.34375 0  1.09375 0.34375 0  1.125 0.34375 0  1.15625 0.34375 0  1.1875 0.34375 0  1.21875 0.34375 0  1.25 0.34375 0  1.28125 0.34375 0  1.3125 0.34375 0  1.34375 0.34375 0  1.375 0.34375 0  1
[...]
<PointData  Scalars="f_49"> 
<DataArray  type="Float64"  Name="f_49"  format="ascii">-8.0055924182069194e-02  -7.8237741530749444e-02  -7.3788779792653261e-02  -6.9785234212540709e-02  -6.5955006724975687e-02  -6.2241798799460235e-02  -5.8627596806939568e-02  -5.5093986645463972e-02  -5.1627534306340817e-02  -4.8218097052822095e-02  -4.4858031833292858e-02  -4.1541464588163879e-02  -3.8263656793136522e-02  -3.5020503541662168e-02  -3.1808185850055008e-02  -2.8622959667469756e-02  -2.5461049257717531e-02  -2.2318613300363471e-02  -1.9191760235911903e-02  -1.6076597504316458e-02  -1.2969303921140291e-02  -9.8662151726448665e-03  -6.7639107376034945e-03  -3.6592886168907144e-03  -5.4961416562707491e-04  2.5674675852450828e-03  5.6939604629593927e-03  8.8315829310700797e-03  1.1981860254529823e-02  1.5146227870303633e-02  1.8326130405838758e-02  2.1523103936755224e-02  2.4738834441084878e-02  2.7975191594263371e-02  3.1234243910919161e-02  3.4518268509587523e-02  3.7829779201675205e-02  4.1171609259878277e-02  4.4547080621143272e-02  4.7960364970689284e-02  5.1416786358061441e-02  5.4923919510575625e-02  5.8490579483052287e-02  6.2129159324102734e-02  6.5865460798995384e-02  6.9636230454120818e-02  7.3515563209027912e-02  7.9611149352873098e-02  7.9747058782372648e-02  -8.0915869360607254e-02  -8.0150071349054622e-02  -7.5139157969553574e-02  -7.1047421041675302e-02  -6.7151734546856662e-02  -6.3361813115748691e-02  -5.9674206716036529e-02  -5.6070927609738183e-02  -5.2537864811430551e-02  -4.9064048711398571e-02  -4.5641081368850880e-02  -4.2262501362933552e-02  -3.8923165986920867e-02  -3.5618720431095513e-02  -3.2345207974842492e-02  -2.9098819815775952e-02  -2.5875758933791643e-02  -2.2672186709377821e-02  -1.9484226700769894e-02  -1.6308007797613464e-02  -1.3139734118142472e-02  -9.9757702765229453e-03  -6.8127291600929424e-03  -3.6475473754160200e-03  -4.7753345366954788e-04  2.6996226073674892e-03  5.8858827872675951e-03  9.0829328646638806e-03  1.2292280146768813e-02  1.5515360410426629e-02  1.8753637764804557e-02  2.2008685408308588e-02  2.5282241676335922e-02  2.8576242844208181e-02  3.1892841618815858e-02  3.5234428405915105e-02  3.8603682710106058e-02  4.2003693803599765e-02  4.5438188344630460e-02  4.8911934264299538e-02  5.2431200041569828e-02  5.6004619651874379e-02  5.9643273865835060e-02  6.3361737273145771e-02  6.7187277155162747e-02  7.1099370893129413e-02  7.5197242644707132e-02  8.0643147797170522e-02  8.1424748853379469e-02  -8.2281851978466131e-02  -8.1545548054443695e-02  -7.6261841325962032e-02  -7.2152684425742700e-02  -6.8209876990229124e-02  -6.4353788338859991e-02  -6.0601612635767452e-02  -5.6936481937715701e-02  -5.3343807085584755e-02  -4.9812263774513837e-02  -4.6332915704528993e-02  -4.2898818584578641e-02  -3.9504468701870674e-02  -3.6145277218581996e-02  -3.2817152712675421e-02  -2.9516216996159975e-02  -2.6238638936042322e-02  -2.2980558766740627e-02  -1.9738077826662408e-02  -1.6507295673937775e-02  -1.3284381596460388e-02  -1.0065668287713100e-02  -6.8477526460464242e-03  -3.6275849200852234e-03  -4.0252621479673379e-04  2.8296415149323380e-03  6.0707589965219048e-03  9.3223798983211158e-03  1.2585890101640792e-02  1.5862633379480340e-02  1.9154023106103091e-02  2.2461627015239159e-02  2.5787221413392781e-02  2.9132820235133108e-02  3.2500692617346623e-02  3.5893390589086874e-02  3.9313818313221456e-02  4.2765382881911188e-02  4.6252263345276649e-02  4.9779858796484798e-02  5.3355260376422839e-02  5.6988183859031614e-02  6.0690629051931219e-02  6.4478949699158905e-02  6.8378305160502695e-02  7.2366600673385337e-02  7.6531059256393710e-02  8.1936044001718930e-02  8.2717669946374459e-02  -8.3415639033345160e-02  -8.2661388256834986e-02  -7.7329275957300991e-02  -7.3187775862702947e-02  -6.9196808780023114e-02  -6.5282983757525614e-02  -6.1474311953579205e-02  -5.7753267501013207e-02  -5.4105282741912265e-02  -5.0519392774442333e-02  -4.6986494004385336e-02  -4.3499435213575008e-02  -4.0052533316654981e-02  -3.6641078102020393e-02  -3.3260907292446906e-02  -2.9908103274266865e-02  -2.6578805027751336e-02  -2.3269113492298168e-02  -1.9975068447983513e-02  -1.6692681551040346e-02  -1.3418014812107804e-02  -1.0147292986284305e-02  -6.8770321679255467e-03  -3.6041587551084923e-03  -3.2608849432187606e-04  2.9592599063113421e-03  6.2535265307327188e-03  9.5580359997792571e-03  1.2873958339596689e-02  1.6202470123375629e-02  1.9544887510015367e-02  2.2902756645588912e-02  2.6277901606468826e-02  2.9672441630068245e-02  3.3088797684387126e-02  3.6529714799667448e-02  3.9998333710510349e-02  4.3498351075716563e-02  4.7034297268441390e-02  5.0611982702550490e-02  5.4238924778253018e-02  5.7925169536019602e-02  6.1682703794545476e-02  6.5526929366244283e-02  6.9480793633794488e-02  7.3514390004787294e-02  7.7705365432472501e-02  8.3098362326837219e-02  8.3875024743809812e-02  -8.4403075657680307e-02  -8.3641692556927813e-02  -7.8284670475010809e-02  -7.4107938264301704e-02  -7.0077639685973359e-02  -6.6117688688562562e-02  -6.2261969909897595e-02  -5.8492471272564857e-02  -5.4795528755512059e-02  -5.1160832149840282e-02  -4.7579309842068228e-02  -4.4043824643133361e-02  -4.0548674831617844e-02  -3.7089140969596583e-02  -3.3661065753495624e-02  -3.0260540675297438e-02  -2.6883700506609161e-02  -2.3526610169451848e-02  -2.0185227206453573e-02  -1.6855430136631593e-02  -1.3533107802826202e-02  -1.0214301812278887e-02  -6.8953820531402754e-03  -3.5732183075986921e-03  -2.4529885989496710e-04  3.0902482684055624e-03  6.4347492111693112e-03  9.7891723603151740e-03  1.3154359530876547e-02  1.6531242607671918e-02  1.9921004645084443e-02  2.3325170917693993e-02  2.6745638678496098e-02  3.0184668401845399e-02  3.3644865591371489e-02  3.7129184681132098e-02  4.0640989483118742e-02  4.4184205979720372e-02  4.7763588789193963e-02  5.1385137062940220e-02  5.5056454542213917e-02  5.8787433168190392e-02  6.2589435596063697e-02  6.6476444690436343e-02  7.0468755772780389e-02  7.4531729293235274e-02  7.8739053250922952e-02  8.4130098713763479e-02  8.4906534868132585e-02  -8.5263226721792096e-02  -8.4495504180302494e-02  -7.9123020394053459e-02  -7.4922427740823222e-02  -7.0861531883205944e-02  -6.6864611696921067e-02  -6.2969344524852811e-02  -5.9157942767827217e-02  -5.5417983003867417e-02  -5.1739719976335988e-02  -4.8114270344125659e-02  -4.4534682063255580e-02  -4.0995360650266377e-02  -3.7491676950655424e-02  -3.4019555885838666e-02  -3.0575156367300807e-02  -2.7154649093780740e-02  -2.3754081616917250e-02  -2.0369320366062073e-02  -1.6996068677075368e-02  -1.3629967244673472e-02  -1.0266778732659543e-02  -6.9026371174652542e-03  -3.5343085348381181e-03  -1.5938049532809653e-04  3.2237023104642560e-03  6.6157893272377087e-03  1.0017321272054234e-02  1.3428676936790488e-02  1.6850470746763900e-02  2.0283742799433010e-02  2.3730034074736155e-02  2.7191374969924728e-02  3.0670229099660069e-02  3.4169433923855963e-02  3.7692174598780222e-02  4.1242024447560574e-02  4.4823082612724545e-02  4.8440221783956725e-02  5.2099470704099600e-02  5.5808311429016648e-02  5.9576265558807372e-02  6.3413918027325503e-02  6.7333955229437942e-02  7.1354739185200522e-02  7.5438698958954650e-02  7.9658450140403902e-02  8.5049617005544656e-02  8.5825559572520541e-02  -8.6013370326604610e-02  -8.5241052202244053e-02  -7.9858131675842520e-02  -7.5638677837213161e-02  -7.1552853483414294e-02  -6.7525811060870813e-02  -6.3597145369004959e-02  -5.9749751954971571e-02  -5.5972258479833482e-02  -5.2255375214147554e-02  -4.8590545844716192e-02  -4.4971093064108743e-02  -4.1391609301584587e-02  -3.7847633057674211e-02  -3.4335241185140079e-02  -3.0850722581847907e-02  -2.7390337080914338e-02  -2.3950151205440851e-02  -2.0525947159035930e-02  -1.7113215748619286e-02  -1.3707259684530898e-02  -1.0303430450755154e-02  -6.8974899012271221e-03  -3.4860226729537497e-03  -6.6754069638542699e-05  3.3613857408951245e-03  6.7985194004416254e-03  1.0244315009347487e-02  1.3698523421313972e-02  1.7161386531149403e-02  2.0633841332452437e-02  2.4117540851989826e-02  2.7614761389574506e-02  3.1128269258637219e-02  3.4661203429081265e-02  3.8217012404551061e-02  4.1799473578039481e-02  4.5412817644467654e-02  4.9061962229818804e-02  5.2752870865352706e-02  5.6492809498476862e-02  6.0290874906432465e-02  6.4156938668651367e-02  6.8102664468673871e-02  7.2145090421535690e-02  7.6244794332240032e-02  8.0474123633823322e-02  8.5865411878537273e-02  8.6640854423623681e-02  -8.6666160469714357e-02  -8.5890311528115756e-02  -8.0498969236203227e-02  -7.6264096938901862e-02  -7.2157943542296127e-02  -6.8105950420436157e-02  -6.4148954624215104e-02  -6.0270666815126814e-02  -5.6460451898341223e-02  -5.2709444752319555e-02  -4.9009467228794013e-02  -4.5354132102577209e-02  -4.1738263076078974e-02  -3.8157619624504271e-02  -3.4608488255436241e-02  -3.1087351843623479e-02  -2.7590626491723554e-02  -2.4114457907694217e-02  -2.0654576985180261e-02  -1.7206238313727126e-02  -1.3764300482302365e-02  -1.0323514305451377e-02  -6.8790495559911766e-03  -3.4271691443828202e-03  3.4208676339677713e-05  3.5053875838448470e-03  6.9853579275130622e-03  1.0472653597833359e-02  1.3966204815955124e-02  1.7465880346819927e-02  2.0972650130122582e-02  2.4488472472975226e-02  2.8016056038419692e-02  3.1558613960188477e-02  3.5119677003878823e-02  3.8702996405809188e-02  4.2312551413574082e-02  4.5952671760187774e-02  4.9628269758859950e-02  5.3345191385312810e-02  5.7110454424684876e-02  6.0932751340483697e-02  6.4821356401166749e-02  6.8787163778183807e-02  7.2846291642114425e-02  7.6958045801184635e-02  8.1194739774022168e-02  8.6585856319964877e-02  8.7360577169201911e-02  -8.7231065650931708e-02  -8.6452414381327947e-02  -8.1053717361057806e-02  -7.6805967064001709e-02  -7.2682911381891757e-02  -6.8609915932449902e-02  -6.4628803340756477e-02  -6.0723943533945980e-02  -5.6885213503666439e-02  -5.3104144454065735e-02  -4.9372902328147554e-02  -4.5685370322948067e-02  -4.2036618530263380e-02  -3.8422652672223452e-02  -3.4840009586411827e-02  -3.1285426689596739e-02  -2.7755556908615201e-02  -2.4246717590698595e-02  -2.0754665536694819e-02  -1.7274431951009306e-02  -1.3800319769150223e-02  -1.0326207240396641e-02  -6.8463034877598774e-03  -3.3562822106400136e-03  1.4566731350062204e-04  3.6585879370737207e-03  7.1796479351555987e-03  1.0705707131476181e-02  1.4234688815874955e-02  1.7766229324587306e-02  2.1301647311818089e-02  2.4843547329743920e-02  2.8395347200461590e-02  3.1960889663684815e-02  3.5544192472996033e-02  3.9149338230257472e-02  4.2780493050268438e-02  4.6442047096641424e-02  5.0138862096248932e-02  5.3876630575250273e-02  5.7662113239255575e-02  6.1503636252097468e-02  6.5409983462040355e-02  6.9391463674489687e-02  7.3463529410670039e-02  7.7584549055123089e-02  8.1826865558168912e-02  8.7217590511378035e-02  8.7991400247081214e-02  -8.7715369461329462e-02  -8.6934424691559167e-02  -8.1529130943889638e-02  -7.7270499260602865e-02  -7.3133234013216697e-02  -6.9042470590394686e-02  -6.5040815442915817e-02  -6.1113108536997689e-02  -5.7249604323541238e-02  -5.3442164380619314e-02  -4.9683229282782883e-02  -4.5966915832753710e-02  -4.2288523197140722e-02  -3.8644297111778317e-02  -3.5031040646276282e-02  -3.1445792168185861e-02  -2.7885528394806722e-02  -2.4346868070492977e-02  -2.0825740525228835e-02  -1.7317049247472776e-02  -1.3814465233912478e-02  -1.0310618889750163e-02  -6.7981286034687347e-03  -3.2715411310743859e-03  2.7057638392006015e-04  3.8250761360110346e-03  7.3860763966278626e-03  1.0947972508132496e-02  1.4507627370872989e-02  1.8064914241710670e-02  2.1622130171323244e-02  2.5183066525338166e-02  2.8752209776757975e-02  3.2334219259418470e-02  3.5933661250907412e-02  3.9554935213424791e-02  4.3202341963632825e-02  4.6880268489168944e-02  5.0593468344343834e-02  5.4347441745879931e-02  5.8148683187611704e-02  6.2005183007418162e-02  6.5925313721072423e-02  6.9918923224495749e-02  7.4000958047398702e-02  7.8129061094952768e-02  8.2375613319990992e-02  8.7765785769043994e-02  8.8538579188109631e-02  -8.8124821280938376e-02  -8.7341969539693642e-02  -8.1930786577895917e-02  -7.7662953019755177e-02  -7.3513734649175044e-02  -6.9407978796590636e-02  -6.5388900321897217e-02  -6.1441663559615271e-02  -5.7556797092618843e-02  -5.3726406093722479e-02  -4.9943130114599110e-02  -4.6201264067920654e-02  -4.2496286257511631e-02  -3.8824641287140395e-02  -3.5183376139066858e-02  -3.1569841247158531e-02  -2.7981407440863134e-02  -2.4415148979374288e-02  -2.0867404495151783e-02  -1.7333205308083667e-02  -1.3805652209841956e-02  -1.0275669001421931e-02  -6.7332062447922362e-03  -3.1705374563047554e-03  4.1325654789125822e-04  4.0109608867561937e-03  7.6113728693325252e-03  1.1205366653217386e-02  1.4789199912793750e-02  1.8364151416470739e-02  2.1934615427950933e-02  2.5506316552545968e-02  2.9085179270327895e-02  3.2676785605429165e-02  3.6286210562566909e-02  3.9918068033511674e-02  4.3576677465600511e-02  4.7266318334605220e-02  5.0991555451435695e-02  5.4757645640760508e-02  5.8570798943750869e-02  6.2438686505717655e-02  6.6369322675123354e-02  7.0372176857816895e-02  7.4461793745662225e-02  7.8595238711978196e-02  8.2844919194544717e-02  8.8234423557970745e-02  8.9006176993891281e-02  -8.8464041568207322e-02  -8.7679604448341206e-02  -8.2263277392392101e-02  -7.7987750448435547e-02  -7.3828584212100534e-02  -6.9710328072841804e-02  -6.5676660538687481e-02  -6.1712961937091783e-02  -5.7809945764845688e-02  -5.3959876097941742e-02  -5.0155515778213554e-02  -4.6391265414044119e-02  -4.2662705523157894e-02  -3.8966400207874022e-02  -3.5299563835864307e-02  -3.1659803252929428e-02  -2.8044887797338471e-02  -2.4452469816754776e-02  -2.0879604899701355e-02  -1.7321954110643013e-02  -1.3772456334329514e-02  -1.0219970624178107e-02  -6.6500077938434514e-03  -3.0499569558644483e-03  5.8041004359908512e-04  4.2257446157394395e-03  7.8652506170527655e-03  1.1485273963623947e-02  1.5083418178426353e-02  1.8664861918575550e-02  2.2237811947061654e-02  2.5810719788040910e-02  2.9391123450786372e-02  3.2985398370347863e-02  3.6598895550477344e-02  4.0236208286309583e-02  4.3901477578332189e-02  4.7598726554864391e-02  5.1332228900380514e-02  5.5106936943893424e-02  5.8928751451888993e-02  6.2805031527172733e-02  6.6743469783480086e-02  7.0753214298137634e-02  7.4848481134855357e-02  7.8985870128009547e-02  8.3237798153275200e-02  8.8626564988845413e-02  8.9397328356941974e-02  -8.8736762692025559e-02  -8.7951033062393061e-02  -8.2530368237854451e-02  -7.8248571184606847e-02  -7.4081325140382209e-02  -6.9952901228937395e-02  -6.5907323191665271e-02  -6.1930106132871893e-02  -5.8012074910046958e-02  -5.4145579507348933e-02  -5.0323434540666519e-02  -4.6540067691520241e-02  -4.2791068922027116e-02  -3.9073008958598825e-02  -3.5383132550429179e-02  -3.1719150271387435e-02  -2.8079094979418923e-02  -2.4461162450540641e-02  -2.0863362030109234e-02  -1.7282709707248638e-02  -1.3713047724920302e-02  -1.0141593163102397e-02  -6.5468555132514464e-03  -2.9049906494001253e-03  7.8303612958328754e-04  4.4845044564133631e-03  8.1612313048499367e-03  1.1795543240776904e-02  1.5392130239801091e-02  1.8964606773140769e-02  2.2526970161284059e-02  2.6090703113723253e-02  2.9664549595368482e-02  3.3255110449764563e-02  3.6867509081439834e-02  4.0505937026213377e-02  4.4174091192860386e-02  4.7875564060203844e-02  5.1614231633887647e-02  5.5394684755259146e-02  5.9222494798508912e-02  6.3104716821613449e-02  6.7048752918266730e-02  7.1063475713954397e-02  7.5162831059790866e-02  7.9303045392041915e-02  8.3556530037952811e-02  8.8944551603806293e-02  8.9714432013190779e-02  -8.8945960005158128e-02  -8.8159222429489689e-02  -8.2735088451461741e-02  -7.8448409434144856e-02  -7.4274886635777984e-02  -7.0138552847077235e-02  -6.6083679710381787e-02  -6.2095858616095172e-02  -5.8165970682047465e-02  -5.4286396016152982e-02  -5.0449943339207770e-02  -4.6650999452306108e-02  -4.2885075925325020e-02  -3.9148628307423293e-02  -3.5438757749176632e-02  -3.1753033172956933e-02  -2.8089424175822171e-02  -2.4446308334289325e-02  -2.0822465764719224e-02  -1.7216767156828044e-02  -1.3625714043818397e-02  -1.0037754551528074e-02  -6.4221841488779586e-03  -2.7280692266322825e-03  1.0394382849835517e-03  4.8100069893885749e-03  8.5154787245189344e-03  1.2140335286185723e-02  1.5710402947896936e-02  1.9254012223575149e-02  2.2791637647061384e-02  2.6336501787283275e-02  2.9897079153631958e-02  3.3479066756349554e-02  3.7086613741086107e-02  4.0723050586301046e-02  4.4391360833336224e-02  4.8094556609331020e-02  5.1836040821665548e-02  5.5620014027822101e-02  5.9451719573735656e-02  6.3337930113723795e-02  6.7285794498494311e-02  7.1303955534178953e-02  7.5406143374668583e-02  7.9548293722656205e-02  8.3802803701452502e-02  8.9190144163996191e-02  8.9959293893060385e-02  -8.9093917930922292e-02  -8.8306458367174989e-02  -8.2879779059092357e-02  -7.8589598568987326e-02  -7.4411580130308977e-02  -7.0269573036817023e-02  -6.6208016546642948e-02  -6.2212540009074592e-02  -5.8274045626383268e-02  -5.4384910107808507e-02  -5.0537903745041482e-02  -4.6727334599833394e-02  -4.2948583726987601e-02  -3.9197909189961459e-02  -3.5472128471913653e-02  -3.1768422745856950e-02  -2.8084268540700546e-02  -2.4417521056791115e-02  -2.0766724216026090e-02  -1.7131612140738713e-02  -1.3512025770342651e-02  -9.9044927940126863e-03  -6.2739065422950597e-03  -2.5064655283635134e-03  1.3743250553546655e-03  5.2276406707322228e-03  8.9377167109453322e-03  1.2508577280106055e-02  1.6017865544205943e-02  1.9511922089600470e-02  2.3013554147094051e-02  2.6533580613124007e-02  3.0077568419446924e-02  3.3648876671748817e-02  3.7249956163982398e-02  4.0882932360152939e-02  4.4549927056986800e-02  4.8253322885775621e-02  5.1996050697336302e-02  5.5781947256883194e-02  5.9615967483407896e-02  6.3504648210068515e-02  6.7454937122057856e-02  7.1475300223097046e-02  7.5579309461726418e-02  7.9722689707721381e-02  8.3977823292114673e-02  8.9364617419782771e-02  9.0133223827899803e-02  -8.9182260936028421e-02  -8.8394369786661667e-02  -8.2966112620436613e-02  -7.8673815522072324e-02  -7.4493081893268753e-02  -7.0347643403576812e-02  -6.6282039820344821e-02  -6.2281917101352842e-02  -5.8338182313674533e-02  -5.4443199253971786e-02  -5.0589698795383074e-02  -4.6771916395291414e-02  -4.2985113927177132e-02  -3.9225362776085994e-02  -3.5489192267470722e-02  -3.1773339228888878e-02  -2.8074592463087134e-02  -2.4389754455537736e-02  -2.0715800414569878e-02  -1.7050324359459922e-02  -1.3391779396364774e-02  -9.7448815504894617e-03  -6.0952162627731475e-03  -2.2318861098993593e-03  1.7750006451977228e-03  5.7235623969672592e-03  9.4025313264624842e-03  1.2849920946911782e-02  1.6266871797603912e-02  1.9701868927516245e-02  2.3166827016485259e-02  2.6663966853744749e-02  3.0193546316714306e-02  3.3755820090385406e-02  3.7351388084967303e-02  4.0981227051122039e-02  4.4646712486076608e-02  4.8349719670840501e-02  5.2092819738466065e-02  5.5879584681960151e-02  5.9714767691679910e-02  6.3604746449419866e-02  6.7556338109817066e-02  7.1577895665109928e-02  7.5682896466627333e-02  7.9826935434314239e-02  8.4082387151110716e-02  8.9468827832002940e-02  9.0237103925091808e-02  -8.9211967201931003e-02  -8.8423938511874453e-02  -8.2995099095754712e-02  -7.8702075596752588e-02  -7.4520411423034338e-02  -7.0373793722145001e-02  -6.6306804170347830e-02  -6.2305095772560812e-02  -5.8359578176589683e-02  -5.4462611684216504e-02  -5.0606913535833853e-02  -4.6786693114236166e-02  -4.2997168403143743e-02  -3.9234340426355117e-02  -3.5494626481432409e-02  -3.1774582585016309e-02  -2.8070697259230656e-02  -2.4379254657903224e-02  -2.0696260207676596e-02  -1.7017417941047389e-02  -1.3338216735213852e-02  -9.6605289428829764e-03  -6.0022757157057096e-03  -2.0089064764788273e-03  2.0132810377567062e-03  6.0033190347183159e-03  9.7621887759205290e-03  1.3040767646864005e-02  1.6377734562