<?xml version="1.0"?>
<VTKFile type="UnstructuredGrid"  version="0.1"  >
<UnstructuredGrid>
<Piece  NumberOfPoints="1617" NumberOfCells="3072">
<Points>
<DataArray  type="Float64"  NumberOfComponents="3"  format="ascii">0 0 0  0.03125 0 0  0.0625 0 0  0.09375 0 0  0.125 0 0  0.15625 0 0  0.1875 0 0  0.21875 0 0  0.25 0 0  0.28125 0 0  0.3125 0 0  0.34375 0 0  0.375 0 0  0.40625 0 0  0.4375 0 0  0.46875 0 0  0.5 0 0  0.53125 0 0  0.5625 0 0  0.59375 0 0  0.625 0 0  0.65625 0 0  0.6875 0 0  0.71875 0 0  0.75 0 0  0.78125 0 0  0.8125 0 0  0.84375 0 0  0.875 0 0  0.90625 0 0  0.9375 0 0  0.96875 0 0  1 0 0  1.03125 0 0  1.0625 0 0  1.09375 0 0  1.125 0 0  1.15625 0 0  1.1875 0 0  1.21875 0 0  1.25 0 0  1.28125 0 0  1.3125 0 0  1.34375 0 0  1.375 0 0  1.40625 0 0  1.4375 0 0  1.46875 0 0  1.5 0 0  0 0.03125 0  0.03125 0.03125 0  0.0625 0.03125 0  0.09375 0.03125 0  0.125 0.03125 0  0.15625 0.03125 0  0.1875 0.03125 0  0.21875 0.03125 0  0.25 0.03125 0  0.28125 0.03125 0  0.3125 0.03125 0  0.34375 0.03125 0  0.375 0.03125 0  0.40625 0.03125 0  0.4375 0.03125 0  0.46875 0.03125 0  0.5 0.03125 0  0.53125 0.03125 0  0.5625 0.03125 0  0.59375 0.03125 0  0.625 0.03125 0  0.65625 0.03125 0  0.6875 0.03125 0  0.71875 0.03125 0  0.75 0.03125 0  0.78125 0.03125 0  0.8125 0.03125 0  0.84375 0.03125 0  0.875 0.03125 0  0.90625 0.03125 0  0.9375 0.03125 0  0.96875 0.03125 0  1 0.03125 0  1.03125 0.03125 0  1.0625 0.03125 0  1.09375 0.03125 0  1.125 0.03125 0  1.15625 0.03125 0  1.1875 0.03125 0  1.21875 0.03125 0  1.25 0.03125 0  1.28125 0.03125 0  1.3125 0.03125 0  1.34375 0.03125 0  1.375 0.03125 0  1.40625 0.03125 0  1.4375 0.03125 0  1.46875 0.03125 0  1.5 0.03125 0  0 0.0625 0  0.03125 0.0625 0  0.0625 0.0625 0  0.09375 0.0625 0  0.125 0.0625 0  0.15625 0.0625 0  0.1875 0.0625 0  0.21875 0.0625 0  0.25 0.0625 0  0.28125 0.0625 0  0.3125 0.0625 0  0.34375 0.0625 0  0.375 0.0625 0  0.40625 0.0625 0  0.4375 0.0625 0  0.46875 0.0625 0  0.5 0.0625 0  0.53125 0.0625 0  0.5625 0.0625 0  0.59375 0.0625 0  0.625 0.0625 0  0.65625 0.0625 0  0.6875 0.0625 0  0.71875 0.0625 0  0.75 0.0625 0  0.78125 0.0625 0  0.8125 0.0625 0  0.84375 0.0625 0  0.875 0.0625 0  0.90625 0.0625 0  0.9375 0.0625 0  0.96875 0.0625 0  1 0.0625 0  1.03125 0.0625 0  1.0625 0.0625 0  1.09375 0.0625 0  1.125 0.0625 0  1.15625 0.0625 0  1.1875 0.0625 0  1.21875 0.0625 0  1.25 0.0625 0  1.28125 0.0625 0  1.3125 0.0625 0  1.34375 0.0625 0  1.375 0.0625 0  1.40625 0.0625 0  1.4375 0.0625 0  1.46875 0.0625 0  1.5 0.0625 0  0 0.09375 0  0.03125 0.09375 0  0.0625 0.09375 0  0.09375 0.09375 0  0.125 0.09375 0  0.15625 0.09375 0  0.1875 0.09375 0  0.21875 0.09375 0  0.25 0.09375 0  0.28125 0.09375 0  0.3125 0.09375 0  0.34375 0.09375 0  0.375 0.09375 0  0.40625 0.09375 0  0.4375 0.09375 0  0.46875 0.09375 0  0.5 0.09375 0  0.53125 0.09375 0  0.5625 0.09375 0  0.59375 0.09375 0  0.625 0.09375 0  0.65625 0.09375 0  0.6875 0.09375 0  0.71875 0.09375 0  0.75 0.09375 0  0.78125 0.09375 0  0.8125 0.09375 0  0.84375 0.09375 0  0.875 0.09375 0  0.90625 0.09375 0  0.9375 0.09375 0  0.96875 0.09375 0  1 0.09375 0  1.03125 0.09375 0  1.0625 0.09375 0  1.09375 0.09375 0  1.125 0.09375 0  1.15625 0.09375 0  1.1875 0.09375 0  1.21875 0.09375 0  1.25 0.09375 0  1.28125 0.09375 0  1.3125 0.09375 0  1.34375 0.09375 0  1.375 0.09375 0  1.40625 0.09375 0  1.4375 0.09375 0  1.46875 0.09375 0  1.5 0.09375 0  0 0.125 0  0.03125 0.125 0  0.0625 0.125 0  0.09375 0.125 0  0.125 0.125 0  0.15625 0.125 0  0.1875 0.125 0  0.21875 0.125 0  0.25 0.125 0  0.28125 0.125 0  0.3125 0.125 0  0.34375 0.125 0  0.375 0.125 0  0.40625 0.125 0  0.4375 0.125 0  0.46875 0.125 0  0.5 0.125 0  0.53125 0.125 0  0.5625 0.125 0  0.59375 0.125 0  0.625 0.125 0  0.65625 0.125 0  0.6875 0.125 0  0.71875 0.125 0  0.75 0.125 0  0.78125 0.125 0  0.8125 0.125 0  0.84375 0.125 0  0.875 0.125 0  0.90625 0.125 0  0.9375 0.125 0  0.96875 0.125 0  1 0.125 0  1.03125 0.125 0  1.0625 0.125 0  1.09375 0.125 0  1.125 0.125 0  1.15625 0.125 0  1.1875 0.125 0  1.21875 0.125 0  1.25 0.125 0  1.28125 0.125 0  1.3125 0.125 0  1.34375 0.125 0  1.375 0.125 0  1.40625 0.125 0  1.4375 0.125 0  1.46875 0.125 0  1.5 0.125 0  0 0.15625 0  0.03125 0.15625 0  0.0625 0.15625 0  0.09375 0.15625 0  0.125 0.15625 0  0.15625 0.15625 0  0.1875 0.15625 0  0.21875 0.15625 0  0.25 0.15625 0  0.28125 0.15625 0  0.3125 0.15625 0  0.34375 0.15625 0  0.375 0.15625 0  0.40625 0.15625 0  0.4375 0.15625 0  0.46875 0.15625 0  0.5 0.15625 0  0.53125 0.15625 0  0.5625 0.15625 0  0.59375 0.15625 0  0.625 0.15625 0  0.65625 0.15625 0  0.6875 0.15625 0  0.71875 0.15625 0  0.75 0.15625 0  0.78125 0.15625 0  0.8125 0.15625 0  0.84375 0.15625 0  0.875 0.15625 0  0.90625 0.15625 0  0.9375 0.15625 0  0.96875 0.15625 0  1 0.15625 0  1.03125 0.15625 0  1.0625 0.15625 0  1.09375 0.15625 0  1.125 0.15625 0  1.15625 0.15625 0  1.1875 0.15625 0  1.21875 0.15625 0  1.25 0.15625 0  1.28125 0.15625 0  1.3125 0.15625 0  1.34375 0.15625 0  1.375 0.15625 0  1.40625 0.15625 0  1.4375 0.15625 0  1.46875 0.15625 0  1.5 0.15625 0  0 0.1875 0  0.03125 0.1875 0  0.0625 0.1875 0  0.09375 0.1875 0  0.125 0.1875 0  0.15625 0.1875 0  0.1875 0.1875 0  0.21875 0.1875 0  0.25 0.1875 0  0.28125 0.1875 0  0.3125 0.1875 0  0.34375 0.1875 0  0.375 0.1875 0  0.40625 0.1875 0  0.4375 0.1875 0  0.46875 0.1875 0  0.5 0.1875 0  0.53125 0.1875 0  0.5625 0.1875 0  0.59375 0.1875 0  0.625 0.1875 0  0.65625 0.1875 0  0.6875 0.1875 0  0.71875 0.1875 0  0.75 0.1875 0  0.78125 0.1875 0  0.8125 0.1875 0  0.84375 0.1875 0  0.875 0.1875 0  0.90625 0.1875 0  0.9375 0.1875 0  0.96875 0.1875 0  1 0.1875 0  1.03125 0.1875 0  1.0625 0.1875 0  1.09375 0.1875 0  1.125 0.1875 0  1.15625 0.1875 0  1.1875 0.1875 0  1.21875 0.1875 0  1.25 0.1875 0  1.28125 0.1875 0  1.3125 0.1875 0  1.34375 0.1875 0  1.375 0.1875 0  1.40625 0.1875 0  1.4375 0.1875 0  1.46875 0.1875 0  1.5 0.1875 0  0 0.21875 0  0.03125 0.21875 0  0.0625 0.21875 0  0.09375 0.21875 0  0.125 0.21875 0  0.15625 0.21875 0  0.1875 0.21875 0  0.21875 0.21875 0  0.25 0.21875 0  0.28125 0.21875 0  0.3125 0.21875 0  0.34375 0.21875 0  0.375 0.21875 0  0.40625 0.21875 0  0.4375 0.21875 0  0.46875 0.21875 0  0.5 0.21875 0  0.53125 0.21875 0  0.5625 0.21875 0  0.59375 0.21875 0  0.625 0.21875 0  0.65625 0.21875 0  0.6875 0.21875 0  0.71875 0.21875 0  0.75 0.21875 0  0.78125 0.21875 0  0.8125 0.21875 0  0.84375 0.21875 0  0.875 0.21875 0  0.90625 0.21875 0  0.9375 0.21875 0  0.96875 0.21875 0  1 0.21875 0  1.03125 0.21875 0  1.0625 0.21875 0  1.09375 0.21875 0  1.125 0.21875 0  1.15625 0.21875 0  1.1875 0.21875 0  1.21875 0.21875 0  1.25 0.21875 0  1.28125 0.21875 0  1.3125 0.21875 0  1.34375 0.21875 0  1.375 0.21875 0  1.40625 0.21875 0  1.4375 0.21875 0  1.46875 0.21875 0  1.5 0.21875 0  0 0.25 0  0.03125 0.25 0  0.0625 0.25 0  0.09375 0.25 0  0.125 0.25 0  0.15625 0.25 0  0.1875 0.25 0  0.21875 0.25 0  0.25 0.25 0  0.28125 0.25 0  0.3125 0.25 0  0.34375 0.25 0  0.375 0.25 0  0.40625 0.25 0  0.4375 0.25 0  0.46875 0.25 0  0.5 0.25 0  0.53125 0.25 0  0.5625 0.25 0  0.59375 0.25 0  0.625 0.25 0  0.65625 0.25 0  0.6875 0.25 0  0.71875 0.25 0  0.75 0.25 0  0.78125 0.25 0  0.8125 0.25 0  0.84375 0.25 0  0.875 0.25 0  0.90625 0.25 0  0.9375 0.25 0  0.96875 0.25 0  1 0.25 0  1.03125 0.25 0  1.0625 0.25 0  1.09375 0.25 0  1.125 0.25 0  1.15625 0.25 0  1.1875 0.25 0  1.21875 0.25 0  1.25 0.25 0  1.28125 0.25 0  1.3125 0.25 0  1.34375 0.25 0  1.375 0.25 0  1.40625 0.25 0  1.4375 0.25 0  1.46875 0.25 0  1.5 0.25 0  0 0.28125 0  0.03125 0.28125 0  0.0625 0.28125 0  0.09375 0.28125 0  0.125 0.28125 0  0.15625 0.28125 0  0.1875 0.28125 0  0.21875 0.28125 0  0.25 0.28125 0  0.28125 0.28125 0  0.3125 0.28125 0  0.34375 0.28125 0  0.375 0.28125 0  0.40625 0.28125 0  0.4375 0.28125 0  0.46875 0.28125 0  0.5 0.28125 0  0.53125 0.28125 0  0.5625 0.28125 0  0.59375 0.28125 0  0.625 0.28125 0  0.65625 0.28125 0  0.6875 0.28125 0  0.71875 0.28125 0  0.75 0.28125 0  0.78125 0.28125 0  0.8125 0.28125 0  0.84375 0.28125 0  0.875 0.28125 0  0.90625 0.28125 0  0.9375 0.28125 0  0.96875 0.28125 0  1 0.28125 0  1.03125 0.28125 0  1.0625 0.28125 0  1.09375 0.28125 0  1.125 0.28125 0  1.15625 0.28125 0  1.1875 0.28125 0  1.21875 0.28125 0  1.25 0.28125 0  1.28125 0.28125 0  1.3125 0.28125 0  1.34375 0.28125 0  1.375 0.28125 0  1.40625 0.28125 0  1.4375 0.28125 0  1.46875 0.28125 0  1.5 0.28125 0  0 0.3125 0  0.03125 0.3125 0  0.0625 0.3125 0  0.09375 0.3125 0  0.125 0.3125 0  0.15625 0.3125 0  0.1875 0.3125 0  0.21875 0.3125 0  0.25 0.3125 0  0.28125 0.3125 0  0.3125 0.3125 0  0.34375 0.3125 0  0.375 0.3125 0  0.40625 0.3125 0  0.4375 0.3125 0  0.46875 0.3125 0  0.5 0.3125 0  0.53125 0.3125 0  0.5625 0.3125 0  0.59375 0.3125 0  0.625 0.3125 0  0.65625 0.3125 0  0.6875 0.3125 0  0.71875 0.3125 0  0.75 0.3125 0  0.78125 0.3125 0  0.8125 0.3125 0  0.84375 0.3125 0  0.875 0.3125 0  0.90625 0.3125 0  0.9375 0.3125 0  0.96875 0.3125 0  1 0.3125 0  1.03125 0.3125 0  1.0625 0.3125 0  1.09375 0.3125 0  1.125 0.3125 0  1.15625 0.3125 0  1.1875 0.3125 0  1.21875 0.3125 0  1.25 0.3125 0  1.28125 0.3125 0  1.3125 0.3125 0  1.34375 0.3125 0  1.375 0.3125 0  1.40625 0.3125 0  1.4375 0.3125 0  1.46875 0.3125 0  1.5 0.3125 0  0 0.34375 0  0.03125 0.34375 0  0.0625 0.34375 0  0.09375 0.34375 0  0.125 0.34375 0  0.15625 0.34375 0  0.1875 0.34375 0  0.21875 0.34375 0  0.25 0.34375 0  0.28125 0.34375 0  0.3125 0.34375 0  0.34375 0.34375 0  0.375 0.34375 0  0.40625 0.34375 0  0.4375 0.34375 0  0.46875 0.34375 0  0.5 0.34375 0  0.53125 0.34375 0  0.5625 0.34375 0  0.59375 0.34375 0  0.625 0.34375 0  0.65625 0.34375 0  0.6875 0.34375 0  0.71875 0.34375 0  0.75 0.34375 0  0.78125 0.34375 0  0.8125 0.34375 0  0.84375 0.34375 0  0.875 0.34375 0  0.90625 0.34375 0  0.9375 0.34375 0  0.96875 0.34375 0  1 0.34375 0  1.03125 0.34375 0  1.0625 0.34375 0  1.09375 0.34375 0  1.125 0.34375 0  1.15625 0.34375 0  1.1875 0.34375 0  1.21875 0.34375 0  1.25 0.34375 0  1.28125 0.34375 0  1.3125 0.34375 0  1.34375 0.34375 0  1.375 0.34375 0  1
[...]
<PointData  Scalars="f_49"> 
<DataArray  type="Float64"  Name="f_49"  format="ascii">1.5371569727796755e-01  1.4788512355697742e-01  1.4161080932854531e-01  1.3496439058896043e-01  1.2836886966713090e-01  1.2185882105191642e-01  1.1542334549674291e-01  1.0904764317884121e-01  1.0271599647508330e-01  9.6414123723259124e-02  9.0130391493956491e-02  8.3855986065933155e-02  7.7584555055172116e-02  7.1311605380253454e-02  6.5033864543426481e-02  5.8748742176795606e-02  5.2453951868129602e-02  4.6147299784492585e-02  3.9826617889071866e-02  3.3489809218139745e-02  2.7134971319177317e-02  2.0760564634427880e-02  1.4365592633899684e-02  7.9497606988632799e-03  1.5135837112228690e-03  -4.9415797737513891e-03  -1.1413575858398525e-02  -1.7899579604252241e-02  -2.4396274805981586e-02  -3.0900060611805124e-02  -3.7407255992780046e-02  -4.3914280883820371e-02  -5.0417805086614295e-02  -5.6914875762176513e-02  -6.3403045155166413e-02  -6.9880558634802956e-02  -7.6346616446935425e-02  -8.2801874127634359e-02  -8.9248888761209455e-02  -9.5693306446724496e-02  -1.0214334398751844e-01  -1.0861366590692850e-01  -1.1511652216816479e-01  -1.2168571576002972e-01  -1.2830194647977275e-01  -1.3516407132695693e-01  -1.4209324293223968e-01  -1.4841915120647325e-01  -1.5370756112143921e-01  1.5465092751544204e-01  1.4860258717060801e-01  1.4225812391402215e-01  1.3547741576739694e-01  1.2878723740991099e-01  1.2222493201448514e-01  1.1574797966712239e-01  1.0933562252212084e-01  1.0297035931105981e-01  9.6636611073696865e-02  9.0321862529108315e-02  8.4016712004159097e-02  7.7714455587529985e-02  7.1410431891674717e-02  6.5101332491504543e-02  5.8784619757718495e-02  5.2458115926417651e-02  4.6119769748651764e-02  3.9767576085254976e-02  3.3399613061573338e-02  2.7014160535311776e-02  2.0609864917151676e-02  1.4185915661971481e-02  7.7421989565304872e-03  1.2793972877542929e-03  -5.2009876639209597e-03  -1.1696696832672852e-02  -1.8204851114328978e-02  -2.4722140391577344e-02  -3.1245032895999565e-02  -3.7769975132345070e-02  -4.4293562591744960e-02  -5.0812676003142557e-02  -5.7324597525315324e-02  -6.3827134935800126e-02  -7.0318811773902021e-02  -7.6799154591686389e-02  -8.3269200626529469e-02  -8.9732046487227934e-02  -9.6193921882945954e-02  -1.0266419198981316e-01  -1.0915810189246224e-01  -1.1569131406422878e-01  -1.2229435068670165e-01  -1.2896796849710829e-01  -1.3584434032219470e-01  -1.4280832342313848e-01  -1.4930137937454091e-01  -1.5516103202382905e-01  1.5455320197840541e-01  1.4862702883607229e-01  1.4222336602142679e-01  1.3535871877631253e-01  1.2859629021722593e-01  1.2200940357173022e-01  1.1551467616021455e-01  1.0909033873889337e-01  1.0271738973420465e-01  9.6378702239645120e-02  9.0060666392751940e-02  8.3753165768660529e-02  7.7449075550405602e-02  7.1143525377498185e-02  6.4833139805757112e-02  5.8515396315955974e-02  5.2188168451274053e-02  4.5849460617395595e-02  3.9497309087875569e-02  3.3129813082440854e-02  2.6745259139685125e-02  2.0342302413230508e-02  1.3920166347789404e-02  7.4788192059355163e-03  1.0190870549740057e-03  -5.4573271379556743e-03  -1.1947928881813159e-02  -1.8449608079880452e-02  -2.4958871127631087e-02  -3.1472086138390365e-02  -3.7985703375277645e-02  -4.4496429065906486e-02  -5.1001351008640360e-02  -5.7498037557840879e-02  -6.3984646042722138e-02  -7.0460105809690393e-02  -7.6924411102563942e-02  -8.3379150844163127e-02  -8.9828088190462382e-02  -9.6278285028151139e-02  -1.0274011545064037e-01  -1.0923009386364337e-01  -1.1576508436339443e-01  -1.2237695832041937e-01  -1.2906550145829906e-01  -1.3596469495313762e-01  -1.4292399042192261e-01  -1.4943095025900749e-01  -1.5524272356754382e-01  1.5453271177904593e-01  1.4870108221222708e-01  1.4226991567184383e-01  1.3537333757217143e-01  1.2855815768015116e-01  1.2194301233312316e-01  1.1541814974395175e-01  1.0897072882266949e-01  1.0257959381389001e-01  9.6226378009418023e-02  8.9896371159319685e-02  8.3578684421898475e-02  7.7265675520889462e-02  7.0952164936957357e-02  6.4634616829351108e-02  5.8310433187366846e-02  5.1977440823808438e-02  4.5633582811284400e-02  3.9276792448938072e-02  3.2905016803787657e-02  2.6516355802713956e-02  2.0109280528719062e-02  1.3682886170790097e-02  7.2371242058607184e-03  7.7295376342394976e-04  -5.7076363110079914e-03  -1.2201752444682296e-02  -1.8705845374300967e-02  -2.5216027046875669e-02  -3.1728388122577153e-02  -3.8239261896128321e-02  -4.4745409081918000e-02  -5.1244128821750660e-02  -5.7733329869259553e-02  -6.4211610724078286e-02  -7.0678423328807666e-02  -7.7134360573775734e-02  -8.3581692471755287e-02  -9.0024958090398885e-02  -9.6472084174514416e-02  -1.0293436298733342e-01  -1.0942911938560644e-01  -1.1597368841221049e-01  -1.2259922603805436e-01  -1.2930321485285920e-01  -1.3621440498994758e-01  -1.4317689340832676e-01  -1.4967015898442801e-01  -1.5549857940405662e-01  1.5451038426040642e-01  1.4870407916953857e-01  1.4226138751924666e-01  1.3535390298853886e-01  1.2850788834441368e-01  1.2186859037683685e-01  1.1531521291132796e-01  1.0884566659731622e-01  1.0243567853870353e-01  9.6066905548143802e-02  8.9723913479192452e-02  8.3395292929311041e-02  7.7072977967452092e-02  7.0751510673424542e-02  6.4427188709734962e-02  5.8097309156983003e-02  5.1759601018965970e-02  4.5411867768894450e-02  3.9051826675230529e-02  3.2677121237922706e-02  2.6285482025003682e-02  1.9875004574662829e-02  1.3444493686257717e-02  6.9937963003518250e-03  5.2402645851840795e-04  -5.9624023192458376e-03  -1.2461970073883787e-02  -1.8970427566018123e-02  -2.5483257956046279e-02  -3.1996110466371692e-02  -3.8505125510942095e-02  -4.5007124403587444e-02  -5.1499685335943381e-02  -5.7981161731957845e-02  -6.4450710590934393e-02  -7.0908416696192370e-02  -7.7355555695183043e-02  -8.3795115997200284e-02  -9.0232372852573489e-02  -9.6675968002512894e-02  -1.0313778983871218e-01  -1.0963548372423193e-01  -1.1618608951919414e-01  -1.2281963140800399e-01  -1.2953092764056187e-01  -1.3644515277000471e-01  -1.4340227037517414e-01  -1.4988100725177422e-01  -1.5569430254187497e-01  1.5446744327815640e-01  1.4867361438931437e-01  1.4223371847596833e-01  1.3532171402976553e-01  1.2845705941817182e-01  1.2179748056885836e-01  1.1522049531065061e-01  1.0873087890483181e-01  1.0230211604301397e-01  9.5917080064402555e-02  8.9559928485313883e-02  8.3219066533063393e-02  7.6886178060233165e-02  7.0555643233116597e-02  6.4223658520478191e-02  5.7887448647405623e-02  5.1544647901238076e-02  4.5192887342377190e-02  3.8829587015777593e-02  3.2451946499742930e-02  2.6057129196119817e-02  1.9642625458137965e-02  1.3206742638976752e-02  6.7491115071894999e-03  2.7104623175688581e-04  -6.2243991754863002e-03  -1.2732742716182618e-02  -1.9248675049177818e-02  -2.5766761409315501e-02  -3.2282048600382245e-02  -3.8790458745541816e-02  -4.5288954398661367e-02  -5.1775534664271275e-02  -5.8249157828916036e-02  -6.4709685025724412e-02  -7.1157942361719184e-02  -7.7595943680709087e-02  -8.4027384415538350e-02  -9.0458184745385667e-02  -9.6897517836124436e-02  -1.0335759652137283e-01  -1.0985604768297058e-01  -1.1640934611199460e-01  -1.2304626175750089e-01  -1.2975958667643428e-01  -1.3667184629335935e-01  -1.4362061759338959e-01  -1.5008356840634327e-01  -1.5588295793072790e-01  1.5440930066261016e-01  1.4862396935852243e-01  1.4218895359620035e-01  1.3527365717056819e-01  1.2839652755226649e-01  1.2172077312618081e-01  1.1512515387661792e-01  1.0861767589893040e-01  1.0217131456946586e-01  9.5770346566442982e-02  8.9398719217481007e-02  8.3044938296616855e-02  7.6700613612206078e-02  7.0360111908307141e-02  6.4019635273208780e-02  5.7676420101262928e-02  5.1328065734280920e-02  4.4972053715884752e-02  3.8605469285789965e-02  3.2224943357323434e-02  2.5826847051157686e-02  1.9407764152860080e-02  1.2965206183192220e-02  6.4984178806915182e-03  8.9887481426963241e-06  -6.4990369841802439e-03  -1.3019687975043178e-02  -1.9546067326820175e-02  -2.6071455010035962e-02  -3.2590159499771287e-02  -3.9097957571468313e-02  -4.5592159034406735e-02  -5.2071439487857592e-02  -5.8535602951477146e-02  -6.4985402607748211e-02  -7.1422523606675087e-02  -7.7849761015244157e-02  -8.4271487293997430e-02  -9.0694170574225574e-02  -9.7127363568353609e-02  -1.0358342553701347e-01  -1.1007980981870459e-01  -1.1663239092465821e-01  -1.2326887147332288e-01  -1.2998051948179404e-01  -1.3688796163435274e-01  -1.4382711498301465e-01  -1.5027472891632729e-01  -1.5606109711466939e-01  1.5434234073068531e-01  1.4856338151412926e-01  1.4213257047670394e-01  1.3521454009940806e-01  1.2832806697554022e-01  1.2163929956216185e-01  1.1502834993079364e-01  1.0850485868920003e-01  1.0204230861514309e-01  9.5625962432821676e-02  8.9239782298104323e-02  8.2872542706596719e-02  7.6515918302130309e-02  7.0164398854941079e-02  6.3814313497068398e-02  5.7463031778542298e-02  5.1108234576760052e-02  4.4747344809662297e-02  3.8377139945460166e-02  3.1993589496684093e-02  2.5592012402478052e-02  1.9167665230651304e-02  1.2716793003074298e-02  6.2379579340247201e-03  -2.6686287922866300e-04  -6.7920456778120999e-03  -1.3329261069902607e-02  -1.9869226481283368e-02  -2.6403484444923443e-02  -3.2925566766460669e-02  -3.9431376274025959e-02  -4.5918985906460284e-02  -5.2388168009128135e-02  -5.8839913954709576e-02  -6.5276100253925870e-02  -7.1699392588431055e-02  -7.8113394632659067e-02  -8.4523109665581478e-02  -9.0935456485886301e-02  -9.7360244365899337e-02  -1.0380986545116944e-01  -1.1030153735461859e-01  -1.1685058781667775e-01  -1.2348384835502643e-01  -1.3019145202318536e-01  -1.3709256118042937e-01  -1.4402190381882046e-01  -1.5045528999047089e-01  -1.5622992082562764e-01  1.5427170054628689e-01  1.4849736530085256e-01  1.4206941043299820e-01  1.3514866642402459e-01  1.2825442033543666e-01  1.2155466871178205e-01  1.1493046454320235e-01  1.0839253374703361e-01  1.0191502099305387e-01  9.5483801499483240e-02  8.9083036490835585e-02  8.2701800054812452e-02  7.6331918842091215e-02  6.9968102281935576e-02  6.3606920010225082e-02  5.7246016326591591e-02  5.0883324673240048e-02  4.4516384617906725e-02  3.8141798001840831e-02  3.1754855724505260e-02  2.5349545180803224e-02  1.8919196546413237e-02  1.2458003503973076e-02  5.9632829005225674e-03  -5.6244378314278818e-04  -7.1109270588740120e-03  -1.3669978107905248e-02  -2.0226702800549078e-02  -2.6770424751996071e-02  -3.3294142921646841e-02  -3.9794546141460808e-02  -4.6271220535747525e-02  -5.2725669135462491e-02  -5.9160509454386424e-02  -6.5578987542841707e-02  -7.1984841568075969e-02  -7.8382467178447324e-02  -8.4777414042040602e-02  -9.1176933788036540e-02  -9.7590970989317544e-02  -1.0403185744895557e-01  -1.1051653865641264e-01  -1.1705985208116795e-01  -1.2368790950652198e-01  -1.3038996457068272e-01  -1.3728399856665163e-01  -1.4420384364053970e-01  -1.5062443701664771e-01  -1.5638883123073119e-01  1.5420126431604131e-01  1.4843014425880743e-01  1.4200376077862767e-01  1.3508011278429286e-01  1.2817892601565156e-01  1.2146948751000272e-01  1.1483346613288811e-01  1.0828236739234987e-01  1.0179083274048514e-01  9.5345154948054664e-02  8.8929738646876269e-02  8.2533902358789962e-02  7.6149655247692072e-02  6.9771965355937507e-02  6.3397722028931916e-02  5.7024979487015480e-02  5.0652135148539230e-02  4.4277118368440144e-02  3.7896656729566332e-02  3.1505507793112023e-02  2.5096107518974939e-02  1.8659023374518757e-02  1.2185046621844766e-02  5.6691125017721356e-03  -8.8551748517304025e-04  -7.4659864260892932e-03  -1.4053522322058812e-02  -2.0629761032657876e-02  -2.7181552624455849e-02  -3.3702311534494135e-02  -4.0190883491951171e-02  -4.6649593572102424e-02  -5.3082525475900776e-02  -5.9494392883424278e-02  -6.5889991185934693e-02  -7.2274123192774514e-02  -7.8651864042429173e-02  -8.5029150811002943e-02  -9.1413401616084411e-02  -9.7814549717014018e-02  -1.0424476204886375e-01  -1.1072066566167399e-01  -1.1725663707373458e-01  -1.2387816594547153e-01  -1.3057379251250659e-01  -1.3746051474971951e-01  -1.4437147069108774e-01  -1.5078078933487027e-01  -1.5653641448833799e-01  1.5413408668668213e-01  1.4836509526556962e-01  1.4193925153256717e-01  1.3501251331807665e-01  1.2810493982481438e-01  1.2138677731143600e-01  1.1474007394021643e-01  1.0817686979164885e-01  1.0167212071024778e-01  9.5212404232416309e-02  8.8782296849116565e-02  8.2371267922782501e-02  7.5971469744677736e-02  6.9578091657181457e-02  6.3188349960506499e-02  5.6800789873146774e-02  5.0414475724898412e-02  4.4028085678448979e-02  3.7639010114844419e-02  3.1241926767987486e-02  2.4827794701106135e-02  1.8383337896946683e-02  1.1893613312329467e-02  5.3487395675337777e-03  -1.2471023618853922e-03  -7.8723856318002119e-03  -1.4496597753694968e-02  -2.1093303028876315e-02  -2.7647684149346523e-02  -3.4156097665031804e-02  -4.0622074973391209e-02  -4.7052435510875498e-02  -5.3454765852719556e-02  -5.9836190034787608e-02  -6.6203009807646152e-02  -7.2560877917791824e-02  -7.8915276074315047e-02  -8.5272259173256509e-02  -9.1639176510312184e-02  -9.8025764060839446e-02  -1.0444389607785171e-01  -1.1090981533286499e-01  -1.1743743773244063e-01  -1.2405168748056111e-01  -1.3074049866069928e-01  -1.3762003189044444e-01  -1.4452287195659277e-01  -1.5092241582757671e-01  -1.5667062355465214e-01  1.5407271116709062e-01  1.4830505330534996e-01  1.4187902251722567e-01  1.3494914507774367e-01  1.2803571822220897e-01  1.2130971691055084e-01  1.1465339265914729e-01  1.0807912935764458e-01  1.0156204732980582e-01  9.5088877067223007e-02  8.8644246695576759e-02  8.2217654367240600e-02  7.5801279473803204e-02  6.9390402646427762e-02  6.2982456172230611e-02  5.6576424362150574e-02  5.0172122836159828e-02  4.3769333214649979e-02  3.7366859365694789e-02  3.0960255918882202e-02  2.4539896891023667e-02  1.8087565874985292e-02  1.1578763786126841e-02  4.9931702212569597e-03  -1.6640589882615864e-03  -8.3536612028010677e-03  -1.5023444952313059e-02  -2.1636211876360445e-02  -2.8179650060163642e-02  -3.4658689071037245e-02  -4.1085557994013401e-02  -4.7473535800652986e-02  -5.3834249460500590e-02  -6.0177026817918824e-02  -6.6509182437817241e-02  -7.2836678788978274e-02  -7.9164920687680454e-02  -8.5499687004128369e-02  -9.1847956360259678e-02  -9.8219049713875586e-02  -1.0462440593701100e-01  -1.1107980753091587e-01  -1.1759869412727872e-01  -1.2420545908677483e-01  -1.3088750450867354e-01  -1.3776027112028566e-01  -1.4465589129907225e-01  -1.5104712017334496e-01  -1.5678914945194392e-01  1.5401934283174121e-01  1.4825246663142894e-01  1.4182581877727668e-01  1.3489295260962025e-01  1.2797432321935065e-01  1.2124145480824493e-01  1.1457667766788102e-01  1.0799257650508741e-01  1.0146431583346242e-01  9.4978654968741263e-02  8.8520147807358049e-02  8.2078178302801605e-02  7.5644777864275481e-02  6.9215096197229292e-02  6.2786517843261891e-02  5.6358185885073325e-02  4.9930454906736386e-02  4.3504295148232230e-02  3.7080577888288148e-02  3.0657289589372139e-02  2.4226740461301736e-02  1.7765788192249422e-02  1.1234966423888054e-02  4.5894587562690988e-03  -2.1640694635027902e-03  -8.9472835092734571e-03  -1.5668021237441709e-02  -2.2279009353738628e-02  -2.8783410312643067e-02  -3.5205241372137382e-02  -4.1570243059663975e-02  -4.7899109113864115e-02  -5.4206735420385933e-02  -6.0503416263857530e-02  -6.6796317914162393e-02  -7.3090790114799117e-02  -7.9391481768464306e-02  -8.5703416631060000e-02  -9.2032875385544555e-02  -9.8388549736455166e-02  -1.0478131385478467e-01  -1.1122642706434926e-01  -1.1773684217426249e-01  -1.2433645514088862e-01  -1.3101219850974741e-01  -1.3787890100027916e-01  -1.4476832081771043e-01  -1.5115267976019581e-01  -1.5688969083175447e-01  1.5397589767078582e-01  1.4820944438320452e-01  1.4178201333032056e-01  1.3484652478832804e-01  1.2792352902909895e-01  1.2118495189571495e-01  1.1451312298345533e-01  1.0792072640813473e-01  1.0138288609911374e-01  9.4886295721044761e-02  8.8415334057444339e-02  8.1959140277459777e-02  7.5509414625193658e-02  6.9060908637689253e-02  6.2610572147212148e-02  5.6157166817706647e-02  4.9700908337673461e-02  4.3243307622505625e-02  3.6787061660835299e-02  3.0334076202180659e-02  2.3882953438690957e-02  1.7410124819268985e-02  1.0856375701118972e-02  4.1169794869677654e-03  -2.7932453182428932e-03  -9.7094778738615224e-03  -1.6470608608316090e-02  -2.3033238420624349e-02  -2.9448289472531548e-02  -3.5773584419108259e-02  -4.2050455880354463e-02  -4.8304382356709939e-02  -5.4550242022117619e-02  -6.0796666461610617e-02  -6.7048861540212071e-02  -7.3310395153127428e-02  -7.9584430999525113e-02  -8.5874792901361269e-02  -9.2186799416166934e-02  -9.8528364691928244e-02  -1.0490972579950218e-01  -1.1134560025377759e-01  -1.1784847264767592e-01  -1.2444179364924722e-01  -1.3111209463935813e-01  -1.3797370567057610e-01  -1.4485808005857903e-01  -1.5123703530363894e-01  -1.5697015076572662e-01  1.5394397233583484e-01  1.4817773003535240e-01  1.4174956856056203e-01  1.3481202579801269e-01  1.2788570379397018e-01  1.2114280561649379e-01  1.1446562093983499e-01  1.0786687166566034e-01  1.0132160107992295e-01  9.4816392485074605e-02  8.8335406857753179e-02  8.1867475299554973e-02  7.5403860788668342e-02  6.8938725263472458e-02  6.2468238707883227e-02  5.5990171698148128e-02  4.9503572589597866e-02  4.3008855142684897e-02  3.6508299961084546e-02  3.0006244699845343e-02  2.3509892728882802e-02  1.7009353614741284e-02  1.0434410916538753e-02  3.5417195352612290e-03  -3.6118235511531814e-03  -1.0698876475606120e-02  -1.7452898325825212e-02  -2.3872220655033326e-02  -3.0124668231498852e-02  -3.6311273704186228e-02  -4.2479910419539454e-02  -4.8651586170822478e-02  -5.4835017655355166e-02  -6.1033666692797618e-02  -6.7248909471278984e-02  -7.3481575268763186e-02  -7.9732872835409516e-02  -8.6005212536565998e-02  -9.2302871630005168e-02  -9.8632979085395603e-02  -1.0500516561146730e-01  -1.1143366201730645e-01  -1.1793055273577883e-01  -1.2451892882426978e-01  -1.3118500729383067e-01  -1.3804274811093761e-01  -1.4492336944023360e-01  -1.5129843334606280e-01  -1.5702876802117766e-01  1.5392477973205071e-01  1.4815864045512703e-01  1.4172996671066493e-01  1.3479110158334359e-01  1.2786267438079690e-01  1.2111705838126656e-01  1.1443649823786434e-01  1.0783372847420467e-01  1.0128371916024723e-01  9.4772958797365525e-02  8.8285430233367032e-02  8.1809708382309984e-02  7.5336678038903412e-02  6.8859956351689108e-02  6.2374919078276768e-02  5.5878168294266423e-02  4.9367013329742110e-02  4.2839282258807919e-02  3.6293505294474331e-02  2.9729774605377710e-02  2.3153559043987217e-02  1.6573108488584988e-02  9.9562518895340325e-03  2.8532738983430960e-03  -4.5776038566286816e-03  -1.1867987264323447e-02  -1.8541432793635043e-02  -2.4671666121432439e-02  -3.0694413024849793e-02  -3.6725647018575343e-02  -4.2791284396889527e-02  -4.8892906440184680e-02  -5.5027095254992643e-02  -6.1190041166088255e-02  -6.7378718570560117e-02  -7.3591211336779136e-02  -7.9826951110100686e-02  -8.6087153743706027e-02  -9.2375264517823769e-02  -9.8697813200383927e-02  -1.0506398516792397e-01  -1.1148766756231331e-01  -1.1798067063202421e-01  -1.2456585045409671e-01  -1.3122921989293504e-01  -1.3808451584594139e-01  -1.4496279639712312e-01  -1.5133553343401923e-01  -1.5706420970388141e-01  1.5391908355285056e-01  1.4815300186620692e-01  1.4172413794196995e-01  1.3478478784429979e-01  1.2785559870952878e-01  1.2110901807897691e-01  1.1442726430017251e-01  1.0782308581573394e-01  1.0127142415006736e-01  9.4758739089140037e-02  8.8268949737778171e-02  8.1790540344732321e-02  7.5314256881766434e-02  6.8833511337342321e-02  6.2343367867671182e-02  5.5839942968714619e-02  4.9319757144419468e-02  4.2779300913061515e-02  3.6214754346507422e-02  2.9622130244968896e-02  2.2999723725058641e-02  1.6353723950986054e-02  9.7133162790962527e-03  2.3326403964559301e-03  -5.1394494959307339e-03  -1.2525191738919195e-02  -1.9357088869874042e-02  -2.5123289124676391e-02  -3.0957263206184974e-02  -3.68