<?xml version="1.0"?>
<VTKFile type="UnstructuredGrid"  version="0.1"  >
<UnstructuredGrid>
<Piece  NumberOfPoints="1617" NumberOfCells="3072">
<Points>
<DataArray  type="Float64"  NumberOfComponents="3"  format="ascii">0 0 0  0.03125 0 0  0.0625 0 0  0.09375 0 0  0.125 0 0  0.15625 0 0  0.1875 0 0  0.21875 0 0  0.25 0 0  0.28125 0 0  0.3125 0 0  0.34375 0 0  0.375 0 0  0.40625 0 0  0.4375 0 0  0.46875 0 0  0.5 0 0  0.53125 0 0  0.5625 0 0  0.59375 0 0  0.625 0 0  0.65625 0 0  0.6875 0 0  0.71875 0 0  0.75 0 0  0.78125 0 0  0.8125 0 0  0.84375 0 0  0.875 0 0  0.90625 0 0  0.9375 0 0  0.96875 0 0  1 0 0  1.03125 0 0  1.0625 0 0  1.09375 0 0  1.125 0 0  1.15625 0 0  1.1875 0 0  1.21875 0 0  1.25 0 0  1.28125 0 0  1.3125 0 0  1.34375 0 0  1.375 0 0  1.40625 0 0  1.4375 0 0  1.46875 0 0  1.5 0 0  0 0.03125 0  0.03125 0.03125 0  0.0625 0.03125 0  0.09375 0.03125 0  0.125 0.03125 0  0.15625 0.03125 0  0.1875 0.03125 0  0.21875 0.03125 0  0.25 0.03125 0  0.28125 0.03125 0  0.3125 0.03125 0  0.34375 0.03125 0  0.375 0.03125 0  0.40625 0.03125 0  0.4375 0.03125 0  0.46875 0.03125 0  0.5 0.03125 0  0.53125 0.03125 0  0.5625 0.03125 0  0.59375 0.03125 0  0.625 0.03125 0  0.65625 0.03125 0  0.6875 0.03125 0  0.71875 0.03125 0  0.75 0.03125 0  0.78125 0.03125 0  0.8125 0.03125 0  0.84375 0.03125 0  0.875 0.03125 0  0.90625 0.03125 0  0.9375 0.03125 0  0.96875 0.03125 0  1 0.03125 0  1.03125 0.03125 0  1.0625 0.03125 0  1.09375 0.03125 0  1.125 0.03125 0  1.15625 0.03125 0  1.1875 0.03125 0  1.21875 0.03125 0  1.25 0.03125 0  1.28125 0.03125 0  1.3125 0.03125 0  1.34375 0.03125 0  1.375 0.03125 0  1.40625 0.03125 0  1.4375 0.03125 0  1.46875 0.03125 0  1.5 0.03125 0  0 0.0625 0  0.03125 0.0625 0  0.0625 0.0625 0  0.09375 0.0625 0  0.125 0.0625 0  0.15625 0.0625 0  0.1875 0.0625 0  0.21875 0.0625 0  0.25 0.0625 0  0.28125 0.0625 0  0.3125 0.0625 0  0.34375 0.0625 0  0.375 0.0625 0  0.40625 0.0625 0  0.4375 0.0625 0  0.46875 0.0625 0  0.5 0.0625 0  0.53125 0.0625 0  0.5625 0.0625 0  0.59375 0.0625 0  0.625 0.0625 0  0.65625 0.0625 0  0.6875 0.0625 0  0.71875 0.0625 0  0.75 0.0625 0  0.78125 0.0625 0  0.8125 0.0625 0  0.84375 0.0625 0  0.875 0.0625 0  0.90625 0.0625 0  0.9375 0.0625 0  0.96875 0.0625 0  1 0.0625 0  1.03125 0.0625 0  1.0625 0.0625 0  1.09375 0.0625 0  1.125 0.0625 0  1.15625 0.0625 0  1.1875 0.0625 0  1.21875 0.0625 0  1.25 0.0625 0  1.28125 0.0625 0  1.3125 0.0625 0  1.34375 0.0625 0  1.375 0.0625 0  1.40625 0.0625 0  1.4375 0.0625 0  1.46875 0.0625 0  1.5 0.0625 0  0 0.09375 0  0.03125 0.09375 0  0.0625 0.09375 0  0.09375 0.09375 0  0.125 0.09375 0  0.15625 0.09375 0  0.1875 0.09375 0  0.21875 0.09375 0  0.25 0.09375 0  0.28125 0.09375 0  0.3125 0.09375 0  0.34375 0.09375 0  0.375 0.09375 0  0.40625 0.09375 0  0.4375 0.09375 0  0.46875 0.09375 0  0.5 0.09375 0  0.53125 0.09375 0  0.5625 0.09375 0  0.59375 0.09375 0  0.625 0.09375 0  0.65625 0.09375 0  0.6875 0.09375 0  0.71875 0.09375 0  0.75 0.09375 0  0.78125 0.09375 0  0.8125 0.09375 0  0.84375 0.09375 0  0.875 0.09375 0  0.90625 0.09375 0  0.9375 0.09375 0  0.96875 0.09375 0  1 0.09375 0  1.03125 0.09375 0  1.0625 0.09375 0  1.09375 0.09375 0  1.125 0.09375 0  1.15625 0.09375 0  1.1875 0.09375 0  1.21875 0.09375 0  1.25 0.09375 0  1.28125 0.09375 0  1.3125 0.09375 0  1.34375 0.09375 0  1.375 0.09375 0  1.40625 0.09375 0  1.4375 0.09375 0  1.46875 0.09375 0  1.5 0.09375 0  0 0.125 0  0.03125 0.125 0  0.0625 0.125 0  0.09375 0.125 0  0.125 0.125 0  0.15625 0.125 0  0.1875 0.125 0  0.21875 0.125 0  0.25 0.125 0  0.28125 0.125 0  0.3125 0.125 0  0.34375 0.125 0  0.375 0.125 0  0.40625 0.125 0  0.4375 0.125 0  0.46875 0.125 0  0.5 0.125 0  0.53125 0.125 0  0.5625 0.125 0  0.59375 0.125 0  0.625 0.125 0  0.65625 0.125 0  0.6875 0.125 0  0.71875 0.125 0  0.75 0.125 0  0.78125 0.125 0  0.8125 0.125 0  0.84375 0.125 0  0.875 0.125 0  0.90625 0.125 0  0.9375 0.125 0  0.96875 0.125 0  1 0.125 0  1.03125 0.125 0  1.0625 0.125 0  1.09375 0.125 0  1.125 0.125 0  1.15625 0.125 0  1.1875 0.125 0  1.21875 0.125 0  1.25 0.125 0  1.28125 0.125 0  1.3125 0.125 0  1.34375 0.125 0  1.375 0.125 0  1.40625 0.125 0  1.4375 0.125 0  1.46875 0.125 0  1.5 0.125 0  0 0.15625 0  0.03125 0.15625 0  0.0625 0.15625 0  0.09375 0.15625 0  0.125 0.15625 0  0.15625 0.15625 0  0.1875 0.15625 0  0.21875 0.15625 0  0.25 0.15625 0  0.28125 0.15625 0  0.3125 0.15625 0  0.34375 0.15625 0  0.375 0.15625 0  0.40625 0.15625 0  0.4375 0.15625 0  0.46875 0.15625 0  0.5 0.15625 0  0.53125 0.15625 0  0.5625 0.15625 0  0.59375 0.15625 0  0.625 0.15625 0  0.65625 0.15625 0  0.6875 0.15625 0  0.71875 0.15625 0  0.75 0.15625 0  0.78125 0.15625 0  0.8125 0.15625 0  0.84375 0.15625 0  0.875 0.15625 0  0.90625 0.15625 0  0.9375 0.15625 0  0.96875 0.15625 0  1 0.15625 0  1.03125 0.15625 0  1.0625 0.15625 0  1.09375 0.15625 0  1.125 0.15625 0  1.15625 0.15625 0  1.1875 0.15625 0  1.21875 0.15625 0  1.25 0.15625 0  1.28125 0.15625 0  1.3125 0.15625 0  1.34375 0.15625 0  1.375 0.15625 0  1.40625 0.15625 0  1.4375 0.15625 0  1.46875 0.15625 0  1.5 0.15625 0  0 0.1875 0  0.03125 0.1875 0  0.0625 0.1875 0  0.09375 0.1875 0  0.125 0.1875 0  0.15625 0.1875 0  0.1875 0.1875 0  0.21875 0.1875 0  0.25 0.1875 0  0.28125 0.1875 0  0.3125 0.1875 0  0.34375 0.1875 0  0.375 0.1875 0  0.40625 0.1875 0  0.4375 0.1875 0  0.46875 0.1875 0  0.5 0.1875 0  0.53125 0.1875 0  0.5625 0.1875 0  0.59375 0.1875 0  0.625 0.1875 0  0.65625 0.1875 0  0.6875 0.1875 0  0.71875 0.1875 0  0.75 0.1875 0  0.78125 0.1875 0  0.8125 0.1875 0  0.84375 0.1875 0  0.875 0.1875 0  0.90625 0.1875 0  0.9375 0.1875 0  0.96875 0.1875 0  1 0.1875 0  1.03125 0.1875 0  1.0625 0.1875 0  1.09375 0.1875 0  1.125 0.1875 0  1.15625 0.1875 0  1.1875 0.1875 0  1.21875 0.1875 0  1.25 0.1875 0  1.28125 0.1875 0  1.3125 0.1875 0  1.34375 0.1875 0  1.375 0.1875 0  1.40625 0.1875 0  1.4375 0.1875 0  1.46875 0.1875 0  1.5 0.1875 0  0 0.21875 0  0.03125 0.21875 0  0.0625 0.21875 0  0.09375 0.21875 0  0.125 0.21875 0  0.15625 0.21875 0  0.1875 0.21875 0  0.21875 0.21875 0  0.25 0.21875 0  0.28125 0.21875 0  0.3125 0.21875 0  0.34375 0.21875 0  0.375 0.21875 0  0.40625 0.21875 0  0.4375 0.21875 0  0.46875 0.21875 0  0.5 0.21875 0  0.53125 0.21875 0  0.5625 0.21875 0  0.59375 0.21875 0  0.625 0.21875 0  0.65625 0.21875 0  0.6875 0.21875 0  0.71875 0.21875 0  0.75 0.21875 0  0.78125 0.21875 0  0.8125 0.21875 0  0.84375 0.21875 0  0.875 0.21875 0  0.90625 0.21875 0  0.9375 0.21875 0  0.96875 0.21875 0  1 0.21875 0  1.03125 0.21875 0  1.0625 0.21875 0  1.09375 0.21875 0  1.125 0.21875 0  1.15625 0.21875 0  1.1875 0.21875 0  1.21875 0.21875 0  1.25 0.21875 0  1.28125 0.21875 0  1.3125 0.21875 0  1.34375 0.21875 0  1.375 0.21875 0  1.40625 0.21875 0  1.4375 0.21875 0  1.46875 0.21875 0  1.5 0.21875 0  0 0.25 0  0.03125 0.25 0  0.0625 0.25 0  0.09375 0.25 0  0.125 0.25 0  0.15625 0.25 0  0.1875 0.25 0  0.21875 0.25 0  0.25 0.25 0  0.28125 0.25 0  0.3125 0.25 0  0.34375 0.25 0  0.375 0.25 0  0.40625 0.25 0  0.4375 0.25 0  0.46875 0.25 0  0.5 0.25 0  0.53125 0.25 0  0.5625 0.25 0  0.59375 0.25 0  0.625 0.25 0  0.65625 0.25 0  0.6875 0.25 0  0.71875 0.25 0  0.75 0.25 0  0.78125 0.25 0  0.8125 0.25 0  0.84375 0.25 0  0.875 0.25 0  0.90625 0.25 0  0.9375 0.25 0  0.96875 0.25 0  1 0.25 0  1.03125 0.25 0  1.0625 0.25 0  1.09375 0.25 0  1.125 0.25 0  1.15625 0.25 0  1.1875 0.25 0  1.21875 0.25 0  1.25 0.25 0  1.28125 0.25 0  1.3125 0.25 0  1.34375 0.25 0  1.375 0.25 0  1.40625 0.25 0  1.4375 0.25 0  1.46875 0.25 0  1.5 0.25 0  0 0.28125 0  0.03125 0.28125 0  0.0625 0.28125 0  0.09375 0.28125 0  0.125 0.28125 0  0.15625 0.28125 0  0.1875 0.28125 0  0.21875 0.28125 0  0.25 0.28125 0  0.28125 0.28125 0  0.3125 0.28125 0  0.34375 0.28125 0  0.375 0.28125 0  0.40625 0.28125 0  0.4375 0.28125 0  0.46875 0.28125 0  0.5 0.28125 0  0.53125 0.28125 0  0.5625 0.28125 0  0.59375 0.28125 0  0.625 0.28125 0  0.65625 0.28125 0  0.6875 0.28125 0  0.71875 0.28125 0  0.75 0.28125 0  0.78125 0.28125 0  0.8125 0.28125 0  0.84375 0.28125 0  0.875 0.28125 0  0.90625 0.28125 0  0.9375 0.28125 0  0.96875 0.28125 0  1 0.28125 0  1.03125 0.28125 0  1.0625 0.28125 0  1.09375 0.28125 0  1.125 0.28125 0  1.15625 0.28125 0  1.1875 0.28125 0  1.21875 0.28125 0  1.25 0.28125 0  1.28125 0.28125 0  1.3125 0.28125 0  1.34375 0.28125 0  1.375 0.28125 0  1.40625 0.28125 0  1.4375 0.28125 0  1.46875 0.28125 0  1.5 0.28125 0  0 0.3125 0  0.03125 0.3125 0  0.0625 0.3125 0  0.09375 0.3125 0  0.125 0.3125 0  0.15625 0.3125 0  0.1875 0.3125 0  0.21875 0.3125 0  0.25 0.3125 0  0.28125 0.3125 0  0.3125 0.3125 0  0.34375 0.3125 0  0.375 0.3125 0  0.40625 0.3125 0  0.4375 0.3125 0  0.46875 0.3125 0  0.5 0.3125 0  0.53125 0.3125 0  0.5625 0.3125 0  0.59375 0.3125 0  0.625 0.3125 0  0.65625 0.3125 0  0.6875 0.3125 0  0.71875 0.3125 0  0.75 0.3125 0  0.78125 0.3125 0  0.8125 0.3125 0  0.84375 0.3125 0  0.875 0.3125 0  0.90625 0.3125 0  0.9375 0.3125 0  0.96875 0.3125 0  1 0.3125 0  1.03125 0.3125 0  1.0625 0.3125 0  1.09375 0.3125 0  1.125 0.3125 0  1.15625 0.3125 0  1.1875 0.3125 0  1.21875 0.3125 0  1.25 0.3125 0  1.28125 0.3125 0  1.3125 0.3125 0  1.34375 0.3125 0  1.375 0.3125 0  1.40625 0.3125 0  1.4375 0.3125 0  1.46875 0.3125 0  1.5 0.3125 0  0 0.34375 0  0.03125 0.34375 0  0.0625 0.34375 0  0.09375 0.34375 0  0.125 0.34375 0  0.15625 0.34375 0  0.1875 0.34375 0  0.21875 0.34375 0  0.25 0.34375 0  0.28125 0.34375 0  0.3125 0.34375 0  0.34375 0.34375 0  0.375 0.34375 0  0.40625 0.34375 0  0.4375 0.34375 0  0.46875 0.34375 0  0.5 0.34375 0  0.53125 0.34375 0  0.5625 0.34375 0  0.59375 0.34375 0  0.625 0.34375 0  0.65625 0.34375 0  0.6875 0.34375 0  0.71875 0.34375 0  0.75 0.34375 0  0.78125 0.34375 0  0.8125 0.34375 0  0.84375 0.34375 0  0.875 0.34375 0  0.90625 0.34375 0  0.9375 0.34375 0  0.96875 0.34375 0  1 0.34375 0  1.03125 0.34375 0  1.0625 0.34375 0  1.09375 0.34375 0  1.125 0.34375 0  1.15625 0.34375 0  1.1875 0.34375 0  1.21875 0.34375 0  1.25 0.34375 0  1.28125 0.34375 0  1.3125 0.34375 0  1.34375 0.34375 0  1.375 0.34375 0  1
[...]
<PointData  Scalars="f_49"> 
<DataArray  type="Float64"  Name="f_49"  format="ascii">-1.5370442139269830e-01  -1.4779246001786572e-01  -1.4145303360830058e-01  -1.3479721997343710e-01  -1.2824789022618230e-01  -1.2181647539020166e-01  -1.1546626788117659e-01  -1.0916376705733882e-01  -1.0288434113312363e-01  -9.6612935447850851e-02  -9.0341769402833852e-02  -8.4067315802063350e-02  -7.7788004032845345e-02  -7.1502870304879229e-02  -6.5210903337007908e-02  -5.8910790763144545e-02  -5.2600866821486708e-02  -4.6279161093506292e-02  -3.9943507355589207e-02  -3.3591696838460326e-02  -2.7221665524737166e-02  -2.0831701010254701e-02  -1.4420647329058588e-02  -7.9880804504995438e-03  -1.5344263506797218e-03  4.9390003292392945e-03  1.1430046324632554e-02  1.7935851534071196e-02  2.4453040539426322e-02  3.0977942489485703e-02  3.7506806235444036e-02  4.4035983426917967e-02  5.0562060966274358e-02  5.7081937667853133e-02  6.3592841739025602e-02  7.0092314724476606e-02  7.6578142603435262e-02  8.3048398059138148e-02  8.9501416847041396e-02  9.5936815835771599e-02  1.0235579186886107e-01  1.0876733516319075e-01  1.1518395012856376e-01  1.2164962142794926e-01  1.2816849011525816e-01  1.3497003411536201e-01  1.4190581831569293e-01  1.4831372571260878e-01  1.5367343832635333e-01  -1.5464870342437551e-01  -1.4852047012746317e-01  -1.4210147966195708e-01  -1.3530376174461814e-01  -1.2865678699832664e-01  -1.2217414290100814e-01  -1.1578575210241179e-01  -1.0945042216859582e-01  -1.0314055917440457e-01  -9.6839352318748781e-02  -9.0538209937756853e-02  -8.4233315444658619e-02  -7.7923053196972181e-02  -7.1606511960769018e-02  -6.5282771908507758e-02  -5.8950633495511051e-02  -5.2608561176196562e-02  -4.6254730354125660e-02  -3.9887133787755366e-02  -3.3503731891912795e-02  -2.7102637157709872e-02  -2.0682318368563928e-02  -1.4241802429848256e-02  -7.7808452806281403e-03  -1.3000424032832607e-03  5.1991437031225834e-03  1.1714447441942584e-02  1.8242945791284861e-02  2.4781260106309152e-02  3.1325779584635706e-02  3.7872872064687521e-02  4.4419055784318165e-02  5.0961116568353330e-02  5.7496168136591148e-02  6.4021657852130973e-02  7.0535341675340688e-02  7.7035229634009328e-02  8.3519633688161066e-02  8.9987268558116520e-02  9.6438225659710775e-02  1.0287488699847719e-01  1.0930716205887536e-01  1.1575151537115003e-01  1.2224967757858876e-01  1.2882647711805356e-01  1.3564578457134996e-01  1.4262190204689584e-01  1.4920045493005851e-01  1.5514430296263165e-01  -1.5453974112393706e-01  -1.4853631856428634e-01  -1.4205338402441323e-01  -1.3516834430853006e-01  -1.2844875672668546e-01  -1.2194390013131248e-01  -1.1554178647296520e-01  -1.0919869311746644e-01  -1.0288453686889674e-01  -9.6580614875175122e-02  -9.0277380890696229e-02  -8.3970633037549064e-02  -7.7658647474967202e-02  -7.1340518323095320e-02  -6.5015375123859825e-02  -5.8682082959876584e-02  -5.2339171121231057e-02  -4.5984868600633715e-02  -3.9617202329638168e-02  -3.3234145612224764e-02  -2.6833809919912598e-02  -2.0414666491149491e-02  -1.3975772605142564e-02  -7.5169669248499257e-03  -1.0389947854824947e-03  5.4564676998329715e-03  1.1966902060156060e-02  1.8489133915881490e-02  2.5019580712417382e-02  3.1554513664350255e-02  3.8090290596453219e-02  4.4623530692780453e-02  5.1151218965041947e-02  5.7670745074970206e-02  6.4179886591954310e-02  7.0676767871209287e-02  7.7159801888438448e-02  8.3627756660663743e-02  9.0079901166337129e-02  9.6517076262316717e-02  1.0294270596203206e-01  1.0936820686882812e-01  1.1581178084386348e-01  1.2231717352969260e-01  1.2890914507165996e-01  1.3575356048024309e-01  1.4272792655775823e-01  1.4932074041426180e-01  1.5521542269161601e-01  -1.5449897791384645e-01  -1.4859082764157805e-01  -1.4207747910564669e-01  -1.3515937545261605e-01  -1.2838767111557750e-01  -1.2185722604846647e-01  -1.1542931250367522e-01  -1.0906776305898859e-01  -1.0273941683981970e-01  -9.6423891306885057e-02  -9.0110572445155329e-02  -8.3794735428009998e-02  -7.7474419258956997e-02  -7.1148628131968678e-02  -6.4816471354517999e-02  -5.8476815929770977e-02  -5.2128181847611012e-02  -4.5768751664496732e-02  -3.9396452011525335e-02  -3.3009099809710056e-02  -2.6604611881309508e-02  -2.0181266435762655e-02  -1.3737986134280076e-02  -7.2745929425525446e-03  -7.9197489696101759e-04  5.7078857574529573e-03  1.2222042308706129e-02  1.8746847305692198e-02  2.5278290365674017e-02  3.1812337000184557e-02  3.8345207408024946e-02  4.4873561773948800e-02  5.1394586785815426e-02  5.7906000684140181e-02  6.4406000127784954e-02  7.0893190494415767e-02  7.7366514880598508e-02  8.3825327896019583e-02  9.0269575570109312e-02  9.6700915969994999e-02  1.0312378876340655e-01  1.0955076349995625e-01  1.1600113995185515e-01  1.2251873592465971e-01  1.2912655688747238e-01  1.3598501175305777e-01  1.4296459087896743e-01  1.4954340589368412e-01  1.5545217065290298e-01  -1.5445415241599678e-01  -1.4857084216399641e-01  -1.4204363989631313e-01  -1.3511394098029611e-01  -1.2831209530297380e-01  -1.2175992755425984e-01  -1.1530735946327085e-01  -1.0892789520266939e-01  -1.0258455974483927e-01  -9.6256561261419085e-02  -8.9932507104930032e-02  -8.3607278196524540e-02  -7.7278677787982419e-02  -7.0945603842455976e-02  -6.4607128834177727e-02  -5.8262102207619890e-02  -5.1909000357286746e-02  -4.5545896443737612e-02  -3.9170513710142039e-02  -3.2780364975012737e-02  -2.6372987997677375e-02  -1.9946271664667545e-02  -1.3498836995678552e-02  -7.0303998426672377e-03  -5.4201685514519628e-04  5.9638743065385498e-03  1.2483656029186314e-02  1.9012930031568179e-02  2.5547008873854613e-02  3.2081378146527277e-02  3.8612039684048929e-02  4.5135700374630515e-02  5.1649818372173174e-02  5.8152547625007468e-02  6.4642624494069961e-02  7.1119251360220695e-02  7.7581998639457278e-02  8.4030872246919575e-02  9.0466502991598197e-02  9.6891281807759660e-02  1.0331040919948965e-01  1.0973715194787637e-01  1.1619110330017551e-01  1.2271557967453434e-01  1.2933128329274249e-01  1.3619462970437279e-01  1.4317054456546657e-01  1.4973496463746050e-01  1.5562718894176517e-01  -1.5439192539671392e-01  -1.4851946509097330e-01  -1.4199231653814981e-01  -1.3505664181127927e-01  -1.2823615780828826e-01  -1.2166545034534976e-01  -1.1519229677254446e-01  -1.0879627435661783e-01  -1.0243760878986402e-01  -9.6096311957911712e-02  -8.9760460920449883e-02  -8.3424772305995251e-02  -7.7086902058725648e-02  -7.0745707317879380e-02  -6.4400269150123979e-02  -5.8049451816578237e-02  -5.1691699508586091e-02  -4.5324951956917083e-02  -3.8946652434930701e-02  -3.2553867822977346e-02  -2.6143551822117934e-02  -1.9712963948578344e-02  -1.3260207051707681e-02  -6.7847754334962197e-03  -2.8794498912740817e-04  6.2271602144739324e-03  1.2755894264794522e-02  1.9292725362378495e-02  2.5831982298006206e-02  3.2368500686009265e-02  3.8898038318230729e-02  4.5417435771595065e-02  5.1924574394373743e-02  5.8418215070294779e-02  6.4897791250670356e-02  7.1363225190926610e-02  7.7814790938280851e-02  8.4253165730215573e-02  9.0679616389306661e-02  9.7097129126611295e-02  1.0351142319548547e-01  1.0993611132605327e-01  1.1639073219774614e-01  1.2291786110665165e-01  1.2953644468744493e-01  1.3639999719129892e-01  1.4337006550481751e-01  1.4992050456889019e-01  1.5579918992672581e-01  -1.5432017280423593e-01  -1.4845363434623882e-01  -1.4192780188736195e-01  -1.3498639901809237e-01  -1.2815257786383738e-01  -1.2156656789771883e-01  -1.1507688759032778e-01  -1.0866575799144093e-01  -1.0229239761280828e-01  -9.5937837499965137e-02  -8.9589775627239646e-02  -8.3242980817958181e-02  -7.6895078500201677e-02  -7.0544993401835121e-02  -6.4191902336850057e-02  -5.7834762749043728e-02  -5.1472047589916400e-02  -4.5101587890173933e-02  -3.8720507281773127e-02  -3.2325293455047005e-02  -2.5912076152377568e-02  -1.9477166271156188e-02  -1.3017835044330513e-02  -6.5331800300243480e-03  -2.4780923126676198e-05  6.5031781857445665e-03  1.3044463656160197e-02  1.9591852326101115e-02  2.6138302117535345e-02  3.2677857702222819e-02  3.9206114035164920e-02  4.5720268183637551e-02  5.2218900303088053e-02  5.8701638831264648e-02  6.5168820833063204e-02  7.1621225115084619e-02  7.8059894174439676e-02  8.4486172425634290e-02  9.0901892545160221e-02  9.7310502042192298e-02  1.0371805340154623e-01  1.1013830319543845e-01  1.1659061577341112e-01  1.2311693564765831e-01  1.2973496952309121e-01  1.3659633707901123e-01  1.4356035276472756e-01  1.5009912922190349e-01  1.5596711570603719e-01  -1.5424473754187296e-01  -1.4838151192570798e-01  -1.4185580087039806e-01  -1.3490862975494111e-01  -1.2806398511776906e-01  -1.2146513035628939e-01  -1.1496148079087717e-01  -1.0853641868474190e-01  -1.0214922070336799e-01  -9.5781561505190932e-02  -8.9420966009632480e-02  -8.3062392599498075e-02  -7.6703541737039541e-02  -7.0343515694016742e-02  -6.3981692380048721e-02  -5.7617236184699640e-02  -5.1248762248250750e-02  -4.4874080583443117e-02  -3.8490014239401335e-02  -3.2092363268180754e-02  -2.5676150374238180e-02  -1.9236291121910762e-02  -1.2768734030919677e-02  -6.2718786747582647e-03  2.5226146309312671e-04  6.7978145219687834e-03  1.3356043136404001e-02  1.9917195166053649e-02  2.6472386466878980e-02  3.3014837057060598e-02  3.9540273168892061e-02  4.6046695497088397e-02  5.2533834516350700e-02  5.9002554292628739e-02  6.5454347668842700e-02  7.1890988717752430e-02  7.8314331755208730e-02  8.4726357457583307e-02  9.1129378161770011e-02  9.7527178177372345e-02  1.0392600407740119e-01  1.1033963826189627e-01  1.1678724715404705e-01  1.2331028439399583e-01  1.2992562621282647e-01  1.3678362094454957e-01  1.4374209780280126e-01  1.5027151776189723e-01  1.5613124080523275e-01  -1.5416900794724425e-01  -1.4830738008171734e-01  -1.4178046605894443e-01  -1.3482745304180446e-01  -1.2797330680003952e-01  -1.2136321473914782e-01  -1.1484715211502405e-01  -1.0840919187249069e-01  -1.0200888594809390e-01  -9.5628225493245789e-02  -8.9254752263392564e-02  -8.2883640403756398e-02  -7.6512737237929979e-02  -7.0141403913863101e-02  -6.3769321568574941e-02  -5.7395996413687908e-02  -5.1020352793660129e-02  -4.4640349240248442e-02  -3.8252627994589616e-02  -3.1852261974407915e-02  -2.5432856258047743e-02  -1.8987298411619502e-02  -1.2509405488554693e-02  -5.9963159109180930e-03  5.4933396373729705e-04  7.1188781606951745e-03  1.3699507233472250e-02  2.0277666857887865e-02  2.6842137924268546e-02  3.3385583071006433e-02  3.9904564471177212e-02  4.6398685879378621e-02  5.2869503872800643e-02  5.9319586118324295e-02  6.5751844796487019e-02  7.2169150592522061e-02  7.8574158331490757e-02  8.4969403285767228e-02  9.1357557500114372e-02  9.7742607779907092e-02  1.0413086989574200e-01  1.1053606214472041e-01  1.1697714209294734e-01  1.2349517002989258e-01  1.3010644105961125e-01  1.3696039531268220e-01  1.4391380826144284e-01  1.5043563629121062e-01  1.5628889351463743e-01  -1.5409530166514732e-01  -1.4823422961165744e-01  -1.4170525779975443e-01  -1.3474648279035317e-01  -1.2788371574539453e-01  -1.2126350683594596e-01  -1.1473614354175593e-01  -1.0828615568108306e-01  -1.0187327239610172e-01  -9.5479653376676937e-02  -8.9092923121296241e-02  -8.2708424369320757e-02  -7.6324176757652004e-02  -6.9939831233804650e-02  -6.3555443956071475e-02  -5.7170993301830383e-02  -5.0785920465883212e-02  -4.4398598305244202e-02  -3.8005773657696140e-02  -3.1601909739845502e-02  -2.5178936882962910e-02  -1.8726840634971560e-02  -1.2235932104511347e-02  -5.7009613225659497e-03  8.7456352354717433e-04  7.4771119251353657e-03  1.4086989548770436e-02  2.0684932065305136e-02  2.7257138645762548e-02  3.3796716755399303e-02  4.0302509031277356e-02  4.6777016535728556e-02  5.3224520680959890e-02  5.9649788535346811e-02  6.6057338746856098e-02  7.2451127095679010e-02  7.8834488161544064e-02  8.5210343046874845e-02  9.1581544895494971e-02  9.7952117339386038e-02  1.0432830931167299e-01  1.1072368176105075e-01  1.1715695451322075e-01  1.2366883770379547e-01  1.3027517976427613e-01  1.3712471224238901e-01  1.4407341094144013e-01  1.5058886900137891e-01  1.5643686698129569e-01  -1.5402574316519174e-01  -1.4816462849691542e-01  -1.4163317825336508e-01  -1.3466890183652755e-01  -1.2779828109823924e-01  -1.2116889459686851e-01  -1.1463117725055684e-01  -1.0816993792879417e-01  -1.0174496330850943e-01  -9.5338494282817918e-02  -8.8938193422882186e-02  -8.2539489894002185e-02  -7.6140535817917812e-02  -6.9741229991401935e-02  -6.3342005369942667e-02  -5.6943389397994315e-02  -5.0545538423724147e-02  -4.4147588959818809e-02  -3.7746910232858054e-02  -3.1337777923956749e-02  -2.4910483976559584e-02  -1.8450995807699305e-02  -1.1943769591821668e-02  -5.3787534426019039e-03  1.2394161798235700e-03  7.8881606566733632e-03  1.4535634203934817e-02  2.1154221340341093e-02  2.7728388285357272e-02  3.4254308102024920e-02  4.0735736365012598e-02  4.7179909206436145e-02  5.3594802777097945e-02  5.9987712354731521e-02  6.6364711562066539e-02  7.2730606667488165e-02  7.9089116766005468e-02  8.5443258730892993e-02  9.1795812513393055e-02  9.8150631441754302e-02  1.0451374143245337e-01  1.1089844105626713e-01  1.1732316365672922e-01  1.2382827395424346e-01  1.3042923776659510e-01  1.3727418979127126e-01  1.4421846488871354e-01  1.5072844969539262e-01  1.5657205167865218e-01  -1.5396246361543472e-01  -1.4810098933829430e-01  -1.4156696337948671e-01  -1.3459762201749276e-01  -1.2771995353815896e-01  -1.2108232954489301e-01  -1.1453521699633536e-01  -1.0806357189737655e-01  -1.0162714395460933e-01  -9.5208165040821274e-02  -8.8794241450589145e-02  -8.2380777939123531e-02  -7.5965944070237240e-02  -6.9549752502161930e-02  -6.3132896192716642e-02  -5.6716393758846996e-02  -5.0301193224823862e-02  -4.3887536099932768e-02  -3.7474142877011347e-02  -3.1056027644123928e-02  -2.4622705473123497e-02  -1.8155005368231725e-02  -1.1627702475055667e-02  -5.0203495706093301e-03  1.6611407793683669e-03  8.3759233174888325e-03  1.5069939597384742e-02  2.1704520912146301e-02  2.8266666184657535e-02  3.4761378924339156e-02  4.1201461092657453e-02  4.7600930249427777e-02  5.3972029608915575e-02  6.0324372749343921e-02  6.6665068163682034e-02  7.2999197459079596e-02  7.9330347723968270e-02  8.5661210892080605e-02  9.1994170464788055e-02  9.8332671865224430e-02  1.0468235186389710e-01  1.1105613936669631e-01  1.1747212543768319e-01  1.2397031777502689e-01  1.3056582985242307e-01  1.3740627364580868e-01  1.4434645478231584e-01  1.5085172601332689e-01  1.5669164108406974e-01  -1.5390753075169131e-01  -1.4804556246297257e-01  -1.4150910226621660e-01  -1.3453530091655744e-01  -1.2765150968745506e-01  -1.2100670661773635e-01  -1.1445131412822612e-01  -1.0797034188301279e-01  -1.0152343012589121e-01  -9.5092714253925584e-02  -8.8665641626843608e-02  -8.2237459941365137e-02  -7.5806182192861504e-02  -6.9371708050629755e-02  -6.2934718979776733e-02  -5.6496434842606934e-02  -5.0058370674708461e-02  -4.3621941590421404e-02  -3.7187851413643287e-02  -3.0753383729851431e-02  -2.4309785711066640e-02  -1.7832761740989030e-02  -1.1282010320307510e-02  -4.6126427017306139e-03  2.1675336282580854e-03  8.9778841070784036e-03  1.5723721191432668e-02  2.2356058285203751e-02  2.8877550211912566e-02  3.5312696470162691e-02  4.1688264813922606e-02  4.8026063910715559e-02  5.4341841977083201e-02  6.0646270631338602e-02  6.6946292643963790e-02  7.3246300509076240e-02  7.9549034675566441e-02  8.5856356755006802e-02  9.2169907801957329e-02  9.8492495539575828e-02  1.0482922077011220e-01  1.1119255588165314e-01  1.1760020704945690e-01  1.2409181890577523e-01  1.3068217536756813e-01  1.3751843207286690e-01  1.4445495615187856e-01  1.5095625526823037e-01  1.5679313656355515e-01  -1.5386283002703380e-01  -1.4800036062506527e-01  -1.4146179415531987e-01  -1.3448429976344425e-01  -1.2759547316306877e-01  -1.2094474147495302e-01  -1.1438244036951857e-01  -1.0789357287633938e-01  -1.0143762598022923e-01  -9.4996576364184002e-02  -8.8557632508500225e-02  -8.2115764234188177e-02  -7.5668645834522832e-02  -6.9215791461293724e-02  -6.2757474463400978e-02  -5.6294563082122218e-02  -4.9828446622868248e-02  -4.3361049897076322e-02  -3.6894801980119990e-02  -3.0430733547034620e-02  -2.3966189836434802e-02  -1.7476281427187653e-02  -1.0900895626748274e-02  -4.1352171281992802e-03  2.8043558468357002e-03  9.7497430432398370e-03  1.6536546581074334e-02  2.3119571799473659e-02  2.9549630507588590e-02  3.5885543796706991e-02  4.2170160823120688e-02  4.8430449350610076e-02  5.4682353037074687e-02  6.0934937443291246e-02  6.7193129113790356e-02  7.3459428042510544e-02  7.9734972927383449e-02  8.6020333182617564e-02  9.2316132233324355e-02  9.8624382635334989e-02  1.0494956512849338e-01  1.1130365884486867e-01  1.1770397776293184e-01  1.2418982170562277e-01  1.3077567853773078e-01  1.3760832321885202e-01  1.4454176815694525e-01  1.5103988076569452e-01  1.5687437549360628e-01  -1.5382995607499747e-01  -1.4796707136529447e-01  -1.4142687560040962e-01  -1.3444660383926291e-01  -1.2755400356870986e-01  -1.2089881442984715e-01  -1.1433127530288627e-01  -1.0783635525854143e-01  -1.0137338338188299e-01  -9.4924161665293619e-02  -8.8475636298139537e-02  -8.2022445484815285e-02  -7.5561820109103534e-02  -6.9092692244042908e-02  -6.2614571955626586e-02  -5.6127353374861591e-02  -4.9631259272280709e-02  -4.3127078239089504e-02  -3.6616720541761294e-02  -3.0103484998716921e-02  -2.3593144863372464e-02  -1.7074382155189603e-02  -1.0476123760869014e-02  -3.5546676006657277e-03  3.6310078115383030e-03  1.0749042297567367e-02  1.7528818688851620e-02  2.3967117912210616e-02  3.0232313126946644e-02  3.6426915911750020e-02  4.2600711124326264e-02  4.8776494898921087e-02  5.4964212380573543e-02  6.1167784506824197e-02  6.7388233622068805e-02  7.3625200807519428e-02  7.9877749841654189e-02  8.6144944349964295e-02  9.2426311256522717e-02  9.8723058093234103e-02  1.0503906900306023e-01  1.1138587029213672e-01  1.1778042932686351e-01  1.2426175623454881e-01  1.3084409785359627e-01  1.3767394185438661e-01  1.4460503061421182e-01  1.5110081102561498e-01  1.5693358324052412e-01  -1.5381012250868767e-01  -1.4794697409306487e-01  -1.4140573859985453e-01  -1.3442372664089525e-01  -1.2752876835286206e-01  -1.2087079493172202e-01  -1.1429996695013710e-01  -1.0780122357238787e-01  -1.0133377462339938e-01  -9.4879289033361000e-02  -8.8424508365309323e-02  -8.1963800512759408e-02  -7.5494014007333271e-02  -6.9013539463567142e-02  -6.2521100664365975e-02  -5.6015430545402020e-02  -4.9495009103400101e-02  -4.2958008126101864e-02  -3.6402509360108873e-02  -2.9827435864237445e-02  -2.3236663558288233e-02  -1.6636927201691135e-02  -9.9953937165976562e-03  -2.8615152178448630e-03  4.6038637418354079e-03  1.1926684735788076e-02  1.8625409231822942e-02  2.4772931809127156e-02  3.0806494896212032e-02  3.6843745784507803e-02  4.2912675943059378e-02  4.9016821924924493e-02  5.5154097859149161e-02  6.1321165216804641e-02  6.7514583572264794e-02  7.3731153219093071e-02  7.9968066545018590e-02  8.6223120676984649e-02  9.2494967706039960e-02  9.8784199745446555e-02  1.0509426042385439e-01  1.1143635246355911e-01  1.1782720091142279e-01  1.2430562116912559e-01  1.3088569859082083e-01  1.3771374612042422e-01  1.4464332543647090e-01  1.5113769482680553e-01  1.5696943156294579e-01  -1.5380409255265096e-01  -1.4794087168894079e-01  -1.4139925687686455e-01  -1.3441662023951972e-01  -1.2752082318639990e-01  -1.2086187752554328e-01  -1.1428990444036863e-01  -1.0778984045329158e-01  -1.0132084923748474e-01  -9.4864556978012882e-02  -8.8407631991788832e-02  -8.1944346635761764e-02  -7.5471408873890963e-02  -6.8987004340336888e-02  -6.2489546466009162e-02  -5.5977284308627154e-02  -4.9447909832832940e-02  -4.2898253520093986e-02  -3.6324030728996655e-02  -2.9720046925278909e-02  -2.3082923194565074e-02  -1.6417257245725965e-02  -9.7516876178583116e-03  -2.3385537261743231e-03  5.1687514571524731e-03  1.2587633004517564e-02  1.9445194510462841e-02  2.5227279273159726e-02  3.1071166756