<?xml version="1.0"?>
<VTKFile type="UnstructuredGrid"  version="0.1"  >
<UnstructuredGrid>
<Piece  NumberOfPoints="1617" NumberOfCells="3072">
<Points>
<DataArray  type="Float64"  NumberOfComponents="3"  format="ascii">0 0 0  0.03125 0 0  0.0625 0 0  0.09375 0 0  0.125 0 0  0.15625 0 0  0.1875 0 0  0.21875 0 0  0.25 0 0  0.28125 0 0  0.3125 0 0  0.34375 0 0  0.375 0 0  0.40625 0 0  0.4375 0 0  0.46875 0 0  0.5 0 0  0.53125 0 0  0.5625 0 0  0.59375 0 0  0.625 0 0  0.65625 0 0  0.6875 0 0  0.71875 0 0  0.75 0 0  0.78125 0 0  0.8125 0 0  0.84375 0 0  0.875 0 0  0.90625 0 0  0.9375 0 0  0.96875 0 0  1 0 0  1.03125 0 0  1.0625 0 0  1.09375 0 0  1.125 0 0  1.15625 0 0  1.1875 0 0  1.21875 0 0  1.25 0 0  1.28125 0 0  1.3125 0 0  1.34375 0 0  1.375 0 0  1.40625 0 0  1.4375 0 0  1.46875 0 0  1.5 0 0  0 0.03125 0  0.03125 0.03125 0  0.0625 0.03125 0  0.09375 0.03125 0  0.125 0.03125 0  0.15625 0.03125 0  0.1875 0.03125 0  0.21875 0.03125 0  0.25 0.03125 0  0.28125 0.03125 0  0.3125 0.03125 0  0.34375 0.03125 0  0.375 0.03125 0  0.40625 0.03125 0  0.4375 0.03125 0  0.46875 0.03125 0  0.5 0.03125 0  0.53125 0.03125 0  0.5625 0.03125 0  0.59375 0.03125 0  0.625 0.03125 0  0.65625 0.03125 0  0.6875 0.03125 0  0.71875 0.03125 0  0.75 0.03125 0  0.78125 0.03125 0  0.8125 0.03125 0  0.84375 0.03125 0  0.875 0.03125 0  0.90625 0.03125 0  0.9375 0.03125 0  0.96875 0.03125 0  1 0.03125 0  1.03125 0.03125 0  1.0625 0.03125 0  1.09375 0.03125 0  1.125 0.03125 0  1.15625 0.03125 0  1.1875 0.03125 0  1.21875 0.03125 0  1.25 0.03125 0  1.28125 0.03125 0  1.3125 0.03125 0  1.34375 0.03125 0  1.375 0.03125 0  1.40625 0.03125 0  1.4375 0.03125 0  1.46875 0.03125 0  1.5 0.03125 0  0 0.0625 0  0.03125 0.0625 0  0.0625 0.0625 0  0.09375 0.0625 0  0.125 0.0625 0  0.15625 0.0625 0  0.1875 0.0625 0  0.21875 0.0625 0  0.25 0.0625 0  0.28125 0.0625 0  0.3125 0.0625 0  0.34375 0.0625 0  0.375 0.0625 0  0.40625 0.0625 0  0.4375 0.0625 0  0.46875 0.0625 0  0.5 0.0625 0  0.53125 0.0625 0  0.5625 0.0625 0  0.59375 0.0625 0  0.625 0.0625 0  0.65625 0.0625 0  0.6875 0.0625 0  0.71875 0.0625 0  0.75 0.0625 0  0.78125 0.0625 0  0.8125 0.0625 0  0.84375 0.0625 0  0.875 0.0625 0  0.90625 0.0625 0  0.9375 0.0625 0  0.96875 0.0625 0  1 0.0625 0  1.03125 0.0625 0  1.0625 0.0625 0  1.09375 0.0625 0  1.125 0.0625 0  1.15625 0.0625 0  1.1875 0.0625 0  1.21875 0.0625 0  1.25 0.0625 0  1.28125 0.0625 0  1.3125 0.0625 0  1.34375 0.0625 0  1.375 0.0625 0  1.40625 0.0625 0  1.4375 0.0625 0  1.46875 0.0625 0  1.5 0.0625 0  0 0.09375 0  0.03125 0.09375 0  0.0625 0.09375 0  0.09375 0.09375 0  0.125 0.09375 0  0.15625 0.09375 0  0.1875 0.09375 0  0.21875 0.09375 0  0.25 0.09375 0  0.28125 0.09375 0  0.3125 0.09375 0  0.34375 0.09375 0  0.375 0.09375 0  0.40625 0.09375 0  0.4375 0.09375 0  0.46875 0.09375 0  0.5 0.09375 0  0.53125 0.09375 0  0.5625 0.09375 0  0.59375 0.09375 0  0.625 0.09375 0  0.65625 0.09375 0  0.6875 0.09375 0  0.71875 0.09375 0  0.75 0.09375 0  0.78125 0.09375 0  0.8125 0.09375 0  0.84375 0.09375 0  0.875 0.09375 0  0.90625 0.09375 0  0.9375 0.09375 0  0.96875 0.09375 0  1 0.09375 0  1.03125 0.09375 0  1.0625 0.09375 0  1.09375 0.09375 0  1.125 0.09375 0  1.15625 0.09375 0  1.1875 0.09375 0  1.21875 0.09375 0  1.25 0.09375 0  1.28125 0.09375 0  1.3125 0.09375 0  1.34375 0.09375 0  1.375 0.09375 0  1.40625 0.09375 0  1.4375 0.09375 0  1.46875 0.09375 0  1.5 0.09375 0  0 0.125 0  0.03125 0.125 0  0.0625 0.125 0  0.09375 0.125 0  0.125 0.125 0  0.15625 0.125 0  0.1875 0.125 0  0.21875 0.125 0  0.25 0.125 0  0.28125 0.125 0  0.3125 0.125 0  0.34375 0.125 0  0.375 0.125 0  0.40625 0.125 0  0.4375 0.125 0  0.46875 0.125 0  0.5 0.125 0  0.53125 0.125 0  0.5625 0.125 0  0.59375 0.125 0  0.625 0.125 0  0.65625 0.125 0  0.6875 0.125 0  0.71875 0.125 0  0.75 0.125 0  0.78125 0.125 0  0.8125 0.125 0  0.84375 0.125 0  0.875 0.125 0  0.90625 0.125 0  0.9375 0.125 0  0.96875 0.125 0  1 0.125 0  1.03125 0.125 0  1.0625 0.125 0  1.09375 0.125 0  1.125 0.125 0  1.15625 0.125 0  1.1875 0.125 0  1.21875 0.125 0  1.25 0.125 0  1.28125 0.125 0  1.3125 0.125 0  1.34375 0.125 0  1.375 0.125 0  1.40625 0.125 0  1.4375 0.125 0  1.46875 0.125 0  1.5 0.125 0  0 0.15625 0  0.03125 0.15625 0  0.0625 0.15625 0  0.09375 0.15625 0  0.125 0.15625 0  0.15625 0.15625 0  0.1875 0.15625 0  0.21875 0.15625 0  0.25 0.15625 0  0.28125 0.15625 0  0.3125 0.15625 0  0.34375 0.15625 0  0.375 0.15625 0  0.40625 0.15625 0  0.4375 0.15625 0  0.46875 0.15625 0  0.5 0.15625 0  0.53125 0.15625 0  0.5625 0.15625 0  0.59375 0.15625 0  0.625 0.15625 0  0.65625 0.15625 0  0.6875 0.15625 0  0.71875 0.15625 0  0.75 0.15625 0  0.78125 0.15625 0  0.8125 0.15625 0  0.84375 0.15625 0  0.875 0.15625 0  0.90625 0.15625 0  0.9375 0.15625 0  0.96875 0.15625 0  1 0.15625 0  1.03125 0.15625 0  1.0625 0.15625 0  1.09375 0.15625 0  1.125 0.15625 0  1.15625 0.15625 0  1.1875 0.15625 0  1.21875 0.15625 0  1.25 0.15625 0  1.28125 0.15625 0  1.3125 0.15625 0  1.34375 0.15625 0  1.375 0.15625 0  1.40625 0.15625 0  1.4375 0.15625 0  1.46875 0.15625 0  1.5 0.15625 0  0 0.1875 0  0.03125 0.1875 0  0.0625 0.1875 0  0.09375 0.1875 0  0.125 0.1875 0  0.15625 0.1875 0  0.1875 0.1875 0  0.21875 0.1875 0  0.25 0.1875 0  0.28125 0.1875 0  0.3125 0.1875 0  0.34375 0.1875 0  0.375 0.1875 0  0.40625 0.1875 0  0.4375 0.1875 0  0.46875 0.1875 0  0.5 0.1875 0  0.53125 0.1875 0  0.5625 0.1875 0  0.59375 0.1875 0  0.625 0.1875 0  0.65625 0.1875 0  0.6875 0.1875 0  0.71875 0.1875 0  0.75 0.1875 0  0.78125 0.1875 0  0.8125 0.1875 0  0.84375 0.1875 0  0.875 0.1875 0  0.90625 0.1875 0  0.9375 0.1875 0  0.96875 0.1875 0  1 0.1875 0  1.03125 0.1875 0  1.0625 0.1875 0  1.09375 0.1875 0  1.125 0.1875 0  1.15625 0.1875 0  1.1875 0.1875 0  1.21875 0.1875 0  1.25 0.1875 0  1.28125 0.1875 0  1.3125 0.1875 0  1.34375 0.1875 0  1.375 0.1875 0  1.40625 0.1875 0  1.4375 0.1875 0  1.46875 0.1875 0  1.5 0.1875 0  0 0.21875 0  0.03125 0.21875 0  0.0625 0.21875 0  0.09375 0.21875 0  0.125 0.21875 0  0.15625 0.21875 0  0.1875 0.21875 0  0.21875 0.21875 0  0.25 0.21875 0  0.28125 0.21875 0  0.3125 0.21875 0  0.34375 0.21875 0  0.375 0.21875 0  0.40625 0.21875 0  0.4375 0.21875 0  0.46875 0.21875 0  0.5 0.21875 0  0.53125 0.21875 0  0.5625 0.21875 0  0.59375 0.21875 0  0.625 0.21875 0  0.65625 0.21875 0  0.6875 0.21875 0  0.71875 0.21875 0  0.75 0.21875 0  0.78125 0.21875 0  0.8125 0.21875 0  0.84375 0.21875 0  0.875 0.21875 0  0.90625 0.21875 0  0.9375 0.21875 0  0.96875 0.21875 0  1 0.21875 0  1.03125 0.21875 0  1.0625 0.21875 0  1.09375 0.21875 0  1.125 0.21875 0  1.15625 0.21875 0  1.1875 0.21875 0  1.21875 0.21875 0  1.25 0.21875 0  1.28125 0.21875 0  1.3125 0.21875 0  1.34375 0.21875 0  1.375 0.21875 0  1.40625 0.21875 0  1.4375 0.21875 0  1.46875 0.21875 0  1.5 0.21875 0  0 0.25 0  0.03125 0.25 0  0.0625 0.25 0  0.09375 0.25 0  0.125 0.25 0  0.15625 0.25 0  0.1875 0.25 0  0.21875 0.25 0  0.25 0.25 0  0.28125 0.25 0  0.3125 0.25 0  0.34375 0.25 0  0.375 0.25 0  0.40625 0.25 0  0.4375 0.25 0  0.46875 0.25 0  0.5 0.25 0  0.53125 0.25 0  0.5625 0.25 0  0.59375 0.25 0  0.625 0.25 0  0.65625 0.25 0  0.6875 0.25 0  0.71875 0.25 0  0.75 0.25 0  0.78125 0.25 0  0.8125 0.25 0  0.84375 0.25 0  0.875 0.25 0  0.90625 0.25 0  0.9375 0.25 0  0.96875 0.25 0  1 0.25 0  1.03125 0.25 0  1.0625 0.25 0  1.09375 0.25 0  1.125 0.25 0  1.15625 0.25 0  1.1875 0.25 0  1.21875 0.25 0  1.25 0.25 0  1.28125 0.25 0  1.3125 0.25 0  1.34375 0.25 0  1.375 0.25 0  1.40625 0.25 0  1.4375 0.25 0  1.46875 0.25 0  1.5 0.25 0  0 0.28125 0  0.03125 0.28125 0  0.0625 0.28125 0  0.09375 0.28125 0  0.125 0.28125 0  0.15625 0.28125 0  0.1875 0.28125 0  0.21875 0.28125 0  0.25 0.28125 0  0.28125 0.28125 0  0.3125 0.28125 0  0.34375 0.28125 0  0.375 0.28125 0  0.40625 0.28125 0  0.4375 0.28125 0  0.46875 0.28125 0  0.5 0.28125 0  0.53125 0.28125 0  0.5625 0.28125 0  0.59375 0.28125 0  0.625 0.28125 0  0.65625 0.28125 0  0.6875 0.28125 0  0.71875 0.28125 0  0.75 0.28125 0  0.78125 0.28125 0  0.8125 0.28125 0  0.84375 0.28125 0  0.875 0.28125 0  0.90625 0.28125 0  0.9375 0.28125 0  0.96875 0.28125 0  1 0.28125 0  1.03125 0.28125 0  1.0625 0.28125 0  1.09375 0.28125 0  1.125 0.28125 0  1.15625 0.28125 0  1.1875 0.28125 0  1.21875 0.28125 0  1.25 0.28125 0  1.28125 0.28125 0  1.3125 0.28125 0  1.34375 0.28125 0  1.375 0.28125 0  1.40625 0.28125 0  1.4375 0.28125 0  1.46875 0.28125 0  1.5 0.28125 0  0 0.3125 0  0.03125 0.3125 0  0.0625 0.3125 0  0.09375 0.3125 0  0.125 0.3125 0  0.15625 0.3125 0  0.1875 0.3125 0  0.21875 0.3125 0  0.25 0.3125 0  0.28125 0.3125 0  0.3125 0.3125 0  0.34375 0.3125 0  0.375 0.3125 0  0.40625 0.3125 0  0.4375 0.3125 0  0.46875 0.3125 0  0.5 0.3125 0  0.53125 0.3125 0  0.5625 0.3125 0  0.59375 0.3125 0  0.625 0.3125 0  0.65625 0.3125 0  0.6875 0.3125 0  0.71875 0.3125 0  0.75 0.3125 0  0.78125 0.3125 0  0.8125 0.3125 0  0.84375 0.3125 0  0.875 0.3125 0  0.90625 0.3125 0  0.9375 0.3125 0  0.96875 0.3125 0  1 0.3125 0  1.03125 0.3125 0  1.0625 0.3125 0  1.09375 0.3125 0  1.125 0.3125 0  1.15625 0.3125 0  1.1875 0.3125 0  1.21875 0.3125 0  1.25 0.3125 0  1.28125 0.3125 0  1.3125 0.3125 0  1.34375 0.3125 0  1.375 0.3125 0  1.40625 0.3125 0  1.4375 0.3125 0  1.46875 0.3125 0  1.5 0.3125 0  0 0.34375 0  0.03125 0.34375 0  0.0625 0.34375 0  0.09375 0.34375 0  0.125 0.34375 0  0.15625 0.34375 0  0.1875 0.34375 0  0.21875 0.34375 0  0.25 0.34375 0  0.28125 0.34375 0  0.3125 0.34375 0  0.34375 0.34375 0  0.375 0.34375 0  0.40625 0.34375 0  0.4375 0.34375 0  0.46875 0.34375 0  0.5 0.34375 0  0.53125 0.34375 0  0.5625 0.34375 0  0.59375 0.34375 0  0.625 0.34375 0  0.65625 0.34375 0  0.6875 0.34375 0  0.71875 0.34375 0  0.75 0.34375 0  0.78125 0.34375 0  0.8125 0.34375 0  0.84375 0.34375 0  0.875 0.34375 0  0.90625 0.34375 0  0.9375 0.34375 0  0.96875 0.34375 0  1 0.34375 0  1.03125 0.34375 0  1.0625 0.34375 0  1.09375 0.34375 0  1.125 0.34375 0  1.15625 0.34375 0  1.1875 0.34375 0  1.21875 0.34375 0  1.25 0.34375 0  1.28125 0.34375 0  1.3125 0.34375 0  1.34375 0.34375 0  1.375 0.34375 0  1
[...]
<PointData  Scalars="f_49"> 
<DataArray  type="Float64"  Name="f_49"  format="ascii">-1.4439523432103485e-01  -1.3999546350582528e-01  -1.3336218866302429e-01  -1.2667167389512007e-01  -1.2021128279251689e-01  -1.1388830769688042e-01  -1.0767626586794719e-01  -1.0155265815792555e-01  -9.5497280169058035e-02  -8.9494039344658383e-02  -8.3530741699699013e-02  -7.7598479020816735e-02  -7.1690781083767904e-02  -6.5802754360816382e-02  -5.9930368758772633e-02  -5.4069957019037045e-02  -4.8217919816283226e-02  -4.2370597299552087e-02  -3.6524263046878995e-02  -3.0675203546548433e-02  -2.4819854055090112e-02  -1.8954965195897813e-02  -1.3077774193700981e-02  -7.1861531830117228e-03  -1.2787082273090099e-03  4.6451909151364939e-03  1.0585458468204297e-02  1.6541411309376450e-02  2.2511938885978192e-02  2.8495696607698247e-02  3.4491294179207349e-02  4.0497456333215338e-02  4.6513144255628122e-02  5.2537639685848000e-02  5.8570610033885334e-02  6.4612190811071418e-02  7.0663145094043492e-02  7.6725166690629010e-02  8.2801419303332624e-02  8.8897281738701275e-02  9.5021372442086097e-02  1.0118632081670213e-01  1.0740906293118828e-01  1.1371703328813106e-01  1.2011455849606166e-01  1.2663030433211542e-01  1.3385349302013244e-01  1.4091898086923543e-01  1.4401987897145330e-01  -1.4547761805391976e-01  -1.4149861305150591e-01  -1.3464137209336746e-01  -1.2775314989813324e-01  -1.2120429515614409e-01  -1.1480874446388742e-01  -1.0852642012656075e-01  -1.0233733124591621e-01  -9.6220111099142761e-02  -9.0157415976657537e-02  -8.4136044560265688e-02  -7.8146363906799493e-02  -7.2181446256346399e-02  -6.6236154116291676e-02  -6.0306363403975605e-02  -5.4388408813470186e-02  -4.8478750264915764e-02  -4.2573819975741126e-02  -3.6670002182215222e-02  -3.0763704826454151e-02  -2.4851491375552814e-02  -1.8930245349586514e-02  -1.2997339956991535e-02  -7.0507836939273285e-03  -1.0893140416832349e-03  4.8875814735678249e-03  1.0879724384060369e-02  1.6886375848127581e-02  2.2906415821572056e-02  2.8938540405731447e-02  3.4981447819811953e-02  4.1033991573043813e-02  4.7095292102532084e-02  5.3164813064364901e-02  5.9242425377459489e-02  6.5328500392673586e-02  7.1424095692840750e-02  7.7531304727344097e-02  8.3653855637508101e-02  8.9797940348699645e-02  9.5973311887827359e-02  1.0219415444145974e-01  1.0848012191581133e-01  1.1485868198405673e-01  1.2135143320383326e-01  1.2797607947268447e-01  1.3515513285360864e-01  1.4213845218173649e-01  1.4607045820464518e-01  -1.4630970129692086e-01  -1.4230790738693794e-01  -1.3537229697707839e-01  -1.2834029190847332e-01  -1.2173713813512183e-01  -1.1529213816851472e-01  -1.0895868458563995e-01  -1.0272400771571208e-01  -9.6565287671320957e-02  -9.0463820479520909e-02  -8.4405425066564191e-02  -7.8379757720457896e-02  -7.2379436363451358e-02  -6.6399075485862671e-02  -6.0434445196107335e-02  -5.4481857694981574e-02  -4.8537788135014512e-02  -4.2598690485005718e-02  -3.6660959130948141e-02  -3.0720994456876101e-02  -2.4775340071064741e-02  -1.8820863086020514e-02  -1.2854946323240021e-02  -6.8756566069854610e-03  -8.8185254204038439e-04  5.1267965662072012e-03  1.1149890823351516e-02  1.7186465868940456e-02  2.3235212341795555e-02  2.9294707258197807e-02  3.5363620082041046e-02  4.1440870129137809e-02  4.7525730052014471e-02  5.3617888491221836e-02  5.9717503014517920e-02  6.5825292234383756e-02  7.1942736116140299e-02  7.8072458349638219e-02  8.4218872972277814e-02  9.0389065606132940e-02  9.6593930955841470e-02  1.0284901254756419e-01  1.0917544741744861e-01  1.1560171999646761e-01  1.2214638773072420e-01  1.2883285029749222e-01  1.3602610429385698e-01  1.4300766964816697e-01  1.4698678437929577e-01  -1.4700615328451391e-01  -1.4301758900457873e-01  -1.3609092159935171e-01  -1.2897094333632528e-01  -1.2232250946087021e-01  -1.1582365557076307e-01  -1.0943650018361735e-01  -1.0315376364996853e-01  -9.6950439496272231e-02  -9.0806934387997709e-02  -8.4708397471663643e-02  -7.8643907989738748e-02  -7.2605687431240754e-02  -6.6588119071923066e-02  -6.0586859314200221e-02  -5.4598169886730080e-02  -4.8618491000897816e-02  -4.2644220756873068e-02  -3.6671654296357284e-02  -3.0697043917368196e-02  -2.4716750872106289e-02  -1.8727460906200151e-02  -1.2726427245588217e-02  -6.7116923056075419e-03  -6.8223292296073958e-04  5.3620165332295619e-03  1.1420280295999077e-02  1.7491175088082230e-02  2.3573008525083056e-02  2.9664077796569158e-02  3.5762916153170780e-02  4.1868460431537677e-02  4.7980140966015904e-02  5.4097918643033628e-02  6.0222312213666980e-02  6.6354473970518399e-02  7.2496387756126560e-02  7.8651261954822818e-02  8.4824191570991372e-02  9.1023037473037721e-02  9.7259512911547732e-02  1.0354985710669622e-01  1.0991540868554724e-01  1.1638376683317060e-01  1.2296962471255066e-01  1.2968868879570586e-01  1.3689893887708524e-01  1.4387512972153832e-01  1.4787641188139575e-01  -1.4759725363867324e-01  -1.4361534167417708e-01  -1.3668347144641788e-01  -1.2951979025854066e-01  -1.2283737155748978e-01  -1.1629114080453611e-01  -1.0985826619190436e-01  -1.0353253416491140e-01  -9.7287947695852084e-02  -9.1105054810287842e-02  -8.4968750035372534e-02  -7.8867764171387550e-02  -7.2794064571646902e-02  -6.6741882306730754e-02  -6.0706798532460880e-02  -5.4685034839031067e-02  -4.8672981179529506e-02  -4.2666934415513058e-02  -3.6663008505655362e-02  -3.0657186134690477e-02  -2.4645491788725722e-02  -1.8624263778642680e-02  -1.2590483795983692e-02  -6.5420944924319338e-03  -4.7821549348553026e-04  5.6008221093718832e-03  1.1693654257489245e-02  1.7798236653597831e-02  2.3912277507602074e-02  3.0033643498952475e-02  3.6160661970372147e-02  4.2292291637886552e-02  4.8428178681557764e-02  5.4568643759266580e-02  6.0714660661815953e-02  6.6867895290764548e-02  7.3030881789528879e-02  7.9207403705624194e-02  8.5403141342732941e-02  9.1626511462616744e-02  9.7889656188447569e-02  1.0420892263067827e-01  1.1060512490577888e-01  1.1710417405119551e-01  1.2371781564832374e-01  1.3045665591355785e-01  1.3767463723229934e-01  1.4464378137584069e-01  1.4863632464629814e-01  -1.4809717938301278e-01  -1.4411905153232499e-01  -1.3718486585681067e-01  -1.2999979853855964e-01  -1.2328988465151450e-01  -1.1670582752970655e-01  -1.1023542781364870e-01  -1.0387163222271273e-01  -9.7589380568508174e-02  -9.1369872353141326e-02  -8.5198011134152790e-02  -7.9062435676183901e-02  -7.2955048583430798e-02  -6.6870053153791617e-02  -6.0803038206439286e-02  -5.4750238966139592e-02  -4.8708021494168537e-02  -4.2672573218532024e-02  -3.6639771839027606e-02  -3.0605217690585333e-02  -2.4564429192591303e-02  -1.8513194888273733e-02  -1.2448040349560090e-02  -6.3667099352814659e-03  -2.6851133646874000e-04  5.8456255190826867e-03  1.1973436648874153e-02  1.8111884223617498e-02  2.4257811690038579e-02  3.0408508736809305e-02  3.6562074440470459e-02  4.2717562401537137e-02  4.8874960603936965e-02  5.5035088301763443e-02  6.1199495526139361e-02  6.7370444532830850e-02  7.3551049276704319e-02  7.9745631943631948e-02  8.5960343300845551e-02  9.2203953112974704e-02  9.8488749181661867e-02  1.0483086086249754e-01  1.1125034301893619e-01  1.1777152196773875e-01  1.2440385767858539e-01  1.3115494155951554e-01  1.3837587566539894e-01  1.4533580669619500e-01  1.4932053487996028e-01  -1.4852111189506489e-01  -1.4454568190234415e-01  -1.3761035776910244e-01  -1.3041056002865284e-01  -1.2367800481500131e-01  -1.1706461316220775e-01  -1.1056299483813402e-01  -1.0416593333249732e-01  -9.7850071216108822e-02  -9.1597175983448464e-02  -8.5392359274259727e-02  -7.9224394537912440e-02  -7.3085286355118365e-02  -6.6969336845048952e-02  -6.0872246736392292e-02  -5.4790352409380544e-02  -4.8720064488599453e-02  -4.2657497180505093e-02  -3.6598272607319918e-02  -3.0537507592117544e-02  -2.4470018281204355e-02  -1.8390773329812402e-02  -1.2295571583839126e-02  -6.1818050527911762e-03  -4.9040779670960075e-05  6.1008686761180727e-03  1.2264273809649584e-02  1.8436660559293817e-02  2.4613674904061619e-02  3.0791910268418942e-02  3.6969308264946182e-02  4.3145206823671747e-02  4.9320166554545949e-02  5.5495718932937262e-02  6.1674152537768839e-02  6.7858422280456354e-02  7.4052249079103530e-02  8.0260454263533967e-02  8.6489559318758638e-02  9.2748541086887501e-02  9.9049670224155242e-02  1.0540874056240082e-01  1.1184506373581016e-01  1.1838169378186959e-01  1.2502646486121544e-01  1.3178497673733619e-01  1.3900612199625847e-01  1.4595646487933764e-01  1.4993292955371884e-01  -1.4888053718308850e-01  -1.4490696164375158e-01  -1.3797043673742093e-01  -1.3075876855324312e-01  -1.2400781554777643e-01  -1.1737084343551465e-01  -1.1084262658464965e-01  -1.0441664350174905e-01  -9.8070941722903607e-02  -9.1787725667321657e-02  -8.5552475403539857e-02  -7.9354228110041988e-02  -7.3185198440463436e-02  -6.7039894280621404e-02  -6.0914236941391905e-02  -5.4804775855469577e-02  -4.8708078021337184e-02  -4.2620277295706881e-02  -3.6536776156851365e-02  -3.0452134315829764e-02  -2.4360237399596908e-02  -1.8254853758449804e-02  -1.2130625543216140e-02  -5.9843205849032625e-03  1.8413037458513839e-04  6.3714096059350857e-03  1.2571686593518212e-02  1.8778246513026262e-02  2.4985135063477878e-02  3.1188225633706834e-02  3.7385557910317162e-02  4.3577135849607262e-02  4.9764472903614958e-02  5.5950117474367220e-02  6.2137299103607324e-02  6.8329767945916900e-02  7.4531870400487504e-02  8.0748881259422214e-02  8.6987604188273393e-02  9.3257117093739281e-02  9.9569584063758390e-02  1.0594043882253158e-01  1.1238834589632433e-01  1.1893536762281967e-01  1.2558815278228233e-01  1.3235087772305612e-01  1.3957061625625386e-01  1.4651179477974305e-01  1.5048073755891930e-01  -1.4918420040077082e-01  -1.4521175404762299e-01  -1.3827342644221435e-01  -1.3105144014378456e-01  -1.2428509241762500e-01  -1.1762830806742436e-01  -1.1107716401878848e-01  -1.0462596287549936e-01  -9.8253673996939503e-02  -9.1942910687985435e-02  -8.5679562086136321e-02  -7.9452954324238129e-02  -7.3255563981917432e-02  -6.7082178189728184e-02  -6.0929033104611861e-02  -5.4793013712476635e-02  -4.8670997207670895e-02  -4.2559302743009668e-02  -3.6453240138797818e-02  -3.0346808634177116e-02  -2.4232719925066162e-02  -1.8102998717251750e-02  -1.1950413652675221e-02  -5.7705910043052309e-03  4.3602984203076835e-04  6.6637060657661088e-03  1.2903058048066277e-02  1.9144066833037238e-02  2.5378761034762783e-02  3.1602535524927929e-02  3.7814139230257143e-02  4.4014925117345421e-02  5.0207929496907867e-02  5.6397106873518794e-02  6.2586841945425270e-02  6.8781756619594556e-02  7.4986804494853898e-02  8.1207638560783973e-02  8.7451243831894968e-02  9.3726701196279391e-02  1.0004600168298740e-01  1.0642421633922779e-01  1.1287945067428841e-01  1.1943298237907926e-01  1.2609055648474987e-01  1.3285527441960365e-01  1.4007269344305692e-01  1.4700554089929441e-01  1.5096779129633228e-01  -1.4943874131842722e-01  -1.4546683944333022e-01  -1.3852614443614314e-01  -1.3129492736665932e-01  -1.2451535415715198e-01  -1.1784154703223702e-01  -1.1127050828825980e-01  -1.0479716577134111e-01  -9.8401100116916024e-02  -9.2065291205922120e-02  -8.5775968276824432e-02  -7.9522710958851023e-02  -7.3298257093666566e-02  -6.7097695945906033e-02  -6.0917635029036868e-02  -5.4755404981375211e-02  -4.8608376273527439e-02  -4.2473303070130489e-02  -3.6345674775041352e-02  -3.0219084398420692e-02  -2.4084883243494809e-02  -1.7932597765444841e-02  -1.1751895783737511e-02  -5.5362148285765262e-03  7.1331472713726787e-04  6.9867117583835127e-03  1.3268577876156330e-02  1.9543933996206318e-02  2.5802600710573314e-02  3.2040382580880072e-02  3.8257989311685163e-02  4.4459226962522962e-02  5.0649410250828274e-02  5.6834310046237929e-02  6.3019616911831527e-02  6.9210810715953267e-02  7.5413349709905195e-02  8.1633126231229702e-02  8.7877166205442989e-02  9.4154435892821298e-02  1.0047667788019810e-01  1.0685858518475307e-01  1.1331775900305666e-01  1.1987482853984341e-01  1.2653481436076253e-01  1.3329997328167537e-01  1.4051458810801615e-01  1.4744003937409875e-01  1.5139645024202183e-01  -1.4964941061116330e-01  -1.4567762602431342e-01  -1.3873421277250692e-01  -1.3149470195211888e-01  -1.2470365561411111e-01  -1.1801513062205278e-01  -1.1142679573334713e-01  -1.0493398861546920e-01  -9.8516705637318472e-02  -9.2158192754872595e-02  -8.5844905044490799e-02  -7.9566600621556030e-02  -7.3316217481176268e-02  -6.7089100845576385e-02  -6.0882217141512124e-02  -5.4693397686501992e-02  -4.8520674126544358e-02  -4.2361551493110591e-02  -3.6212172239544586e-02  -3.0066179800452560e-02  -2.3913634625042830e-02  -1.7740620044323974e-02  -1.1531595856961495e-02  -5.2755547556841741e-03  1.0255011223324684e-03  7.3536495765660643e-03  1.3682821962783106e-02  1.9990792970974603e-02  2.6265969387156165e-02  3.2506878109198327e-02  3.8718467924928189e-02  4.4908558154661556e-02  5.1085546132804409e-02  5.7257279973768851e-02  6.3430703574065314e-02  6.9611956327116919e-02  7.5806757947451439e-02  8.2021006134301327e-02  8.8261569240340412e-02  9.4537148498804693e-02  1.0085914234235924e-01  1.0724182957646909e-01  1.1370232982076643e-01  1.2026070867415994e-01  1.2692137886184071e-01  1.3368591244735561e-01  1.4089750739852216e-01  1.4781648502672917e-01  1.5176786260308914e-01  -1.4982051314148234e-01  -1.4584856857584552e-01  -1.3890234324931891e-01  -1.3165549512869745e-01  -1.2485457229083918e-01  -1.1815342013142793e-01  -1.1155017753847969e-01  -1.0504042601115650e-01  -9.8604424997047385e-02  -9.2225562846590614e-02  -8.5890396618313131e-02  -7.9588751240074640e-02  -7.3313642299792967e-02  -6.7060542502829029e-02  -6.0826658249512208e-02  -5.4610252744237829e-02  -4.8410071514626715e-02  -4.2224658505116711e-02  -3.6051466694608833e-02  -2.9885118161437713e-02  -2.3715147375900678e-02  -1.7523366723762521e-02  -1.1285552911039989e-02  -4.9810345959059622e-03  1.3871907762572873e-03  7.7850535739504671e-03  1.4166894559631174e-02  2.0500947625585943e-02  2.6778051869691941e-02  3.3004534788564278e-02  3.9193151579080904e-02  4.5357447653321545e-02  5.1509341765870312e-02  5.7658547036425020e-02  6.3812806867410962e-02  6.9978436533851690e-02  7.6160992648953041e-02  8.2366039320059758e-02  8.8600033986952625e-02  9.4871236682277663e-02  1.0119059334640115e-01  1.0757192089078391e-01  1.1403186220058063e-01  1.2058997463881188e-01  1.2725014521197728e-01  1.3401338000827831e-01  1.4122194792455106e-01  1.4813534836934494e-01  1.5208246212280507e-01  -1.4995564811516973e-01  -1.4598339615615599e-01  -1.3903450658611083e-01  -1.3178137574335605e-01  -1.2497216427798356e-01  -1.1826043581941174e-01  -1.1164465136175913e-01  -1.0512051427020247e-01  -9.8668422135338690e-02  -9.2271791694267774e-02  -8.5917162348310663e-02  -7.9594292375424910e-02  -7.3296108551969455e-02  -6.7018004153194463e-02  -6.0757175389894773e-02  -5.4512046699918895e-02  -4.8281856664800990e-02  -4.2066207555456751e-02  -3.5864429916541610e-02  -2.9673532661372660e-02  -2.3484701480696899e-02  -1.7275986587966485e-02  -1.1009428659718894e-02  -4.6417631587492691e-03  1.8223652615292831e-03  8.3136074381249137e-03  1.4750290039163436e-02  2.1091950830018528e-02  2.7343600276096731e-02  3.3528747162292358e-02  3.9672158241655077e-02  4.5793865787023366e-02  5.1908565651022733e-02  5.8026708840736720e-02  6.4155802237332277e-02  7.0301526623453819e-02  7.6468688263259019e-02  8.2662111026432478e-02  8.8887570632849008e-02  9.5152715265344148e-02  1.0146794237933685e-01  1.0784656883797368e-01  1.1430476778629807e-01  1.2086163549818171e-01  1.2752060251665845e-01  1.3428220725997631e-01  1.4148793261295706e-01  1.4839665959096826e-01  1.5234026261227340e-01  -1.5005780002382846e-01  -1.4608520052277732e-01  -1.3913400316542654e-01  -1.3187577342511428e-01  -1.2505993344707586e-01  -1.1833975084253961e-01  -1.1171389905660110e-01  -1.0517811967622603e-01  -9.8712856454053519e-02  -9.2301469772218855e-02  -8.5930385607649512e-02  -7.9589175432790094e-02  -7.3270510451392171e-02  -6.6969464470190740e-02  -6.0682875456894506e-02  -5.4408840097274924e-02  -4.8146460268802621e-02  -4.1895764042776784e-02  -3.5657706394892047e-02  -2.9432830402864988e-02  -2.3217790201965998e-02  -1.6991920769024269e-02  -1.0698874371852232e-02  -4.2404294751448223e-03  2.3710442204164673e-03  8.9885214761650928e-03  1.5468027576308808e-02  2.1773363078294108e-02  2.7952739992600031e-02  3.4059813399135136e-02  4.0133020318374728e-02  4.6196394956723716e-02  5.2264433631803893e-02  5.8345990785444390e-02  6.4446751163041868e-02  7.0570753267549954e-02  7.6721435278607017e-02  8.2902512736631753e-02  8.9118868761356163e-02  9.5377428514582252e-02  1.0168799476605153e-01  1.0806338283337841e-01  1.1451932671734276e-01  1.2107451943849852e-01  1.2773200820983865e-01  1.3449195702011438e-01  1.4169520962959598e-01  1.4860021004002388e-01  1.5254106056490740e-01  -1.5012934570701542e-01  -1.4615644310833423e-01  -1.3920346438512862e-01  -1.3194145082441366e-01  -1.2512075017310081e-01  -1.1839436399934007e-01  -1.1176110022214328e-01  -1.0521669160075027e-01  -9.8741575297665363e-02  -9.2319015087285669e-02  -8.5935278741786816e-02  -7.9579691222871757e-02  -7.3244571801564101e-02  -6.6924506783264559e-02  -6.0615676467067059e-02  -5.4315320745039933e-02  -4.8021504096096609e-02  -4.1733238687906293e-02  -3.5451067813224379e-02  -2.9177385380030483e-02  -2.2916241668231325e-02  -1.6661768207127097e-02  -1.0347345664067743e-02  -3.7481222789241763e-03  3.0859347614350437e-03  9.8622863530070468e-03  1.6339625195215295e-02  2.2521275190351308e-02  2.8561729752208168e-02  3.4551975080071143e-02  4.0535717542838842e-02  4.6532676880282342e-02  5.2551697199134273e-02  5.8596981049361854e-02  6.4670794236166756e-02  7.0774734204908124e-02  7.6910492526155422e-02  8.3080516105838553e-02  8.9288748071453372e-02  9.5541401804485254e-02  1.0184772770416486e-01  1.0822009962569330e-01  1.1467388403377705e-01  1.2122745304101970e-01  1.2788355871080032e-01  1.3464208901981214e-01  1.4184340862590927e-01  1.4874569205036828e-01  1.5268456593081042e-01  -1.5017202576559785e-01  -1.4619892618150454e-01  -1.3924481967872382e-01  -1.3198044862677435e-01  -1.2515676143085555e-01  -1.1842655775053453e-01  -1.1178872748010996e-01  -1.0523898057881724e-01  -9.8757734888345175e-02  -9.2328169335551158e-02  -8.5936418593645966e-02  -7.9571599702679727e-02  -7.3225724734669956e-02  -6.6892928174655100e-02  -6.0568723043958841e-02  -5.4249353607954486e-02  -4.7931387748765993e-02  -4.1611590559841968e-02  -3.5287174956347186e-02  -2.8956361562864207e-02  -2.2621226303067496e-02  -1.6293360606124872e-02  -9.9422276937294954e-03  -3.1525823578194179e-03  3.9327767535401311e-03  1.0896095045655963e-02  1.7303991231682445e-02  2.3227215671159252e-02  2.9067395797538285e-02  3.4925201082054373e-02  4.0822650021039061e-02  4.6762132657349721e-02  5.2741757064865766e-02  5.8759329817221345e-02  6.4813265528229511e-02  7.0902760102440607e-02  7.7027945226689376e-02  8.3190213329612711e-02  8.9392768283903051e-02  9.5641288156186083e-02  1.0194462358476838e-01  1.0831484024146776e-01  1.1476705664891759e-01  1.2131943635188040e-01  1.2797454376992687e-01  1.3473209922107732e-01  1.4193216354314714e-01  1.4883280160270856e-01  1.5277049526236308e-01  -1.5018690947027058e-01  -1.4621375671668849e-01  -1.3925925513865486e-01  -1.3199402595833032e-01  -1.2516930069023646e-01  -1.1843776375459260e-01  -1.1179835154508348e-01  -1.0524676112996478e-01  -9.8763408961780166e-02  -9.2331443755075918e-02  -8.5936954322495845e-02  -7.9568983107462382e-02  -7.3219429725895555e-02  -6.6882258612063483e-02  -6.0552722543820874e-02  -5.4226656703630909e-02  -4.7899961668067370e-02  -4.1568253907037202e-02  -3.5226659100401791e-02  -2.8869707890470265e-02  -2.2493210390922270e-02  -1.6105485008934464e-02  -9.7353799882495505e-03  -2.6923435965876576e-03  4.4288914102634438e-03  1.1476701691088879e-02  1.8033286862942727e-02  2.3625082737121422e-02  2.9297390959