<?xml version="1.0"?>
<VTKFile type="UnstructuredGrid"  version="0.1"  >
<UnstructuredGrid>
<Piece  NumberOfPoints="1617" NumberOfCells="3072">
<Points>
<DataArray  type="Float64"  NumberOfComponents="3"  format="ascii">0 0 0  0.03125 0 0  0.0625 0 0  0.09375 0 0  0.125 0 0  0.15625 0 0  0.1875 0 0  0.21875 0 0  0.25 0 0  0.28125 0 0  0.3125 0 0  0.34375 0 0  0.375 0 0  0.40625 0 0  0.4375 0 0  0.46875 0 0  0.5 0 0  0.53125 0 0  0.5625 0 0  0.59375 0 0  0.625 0 0  0.65625 0 0  0.6875 0 0  0.71875 0 0  0.75 0 0  0.78125 0 0  0.8125 0 0  0.84375 0 0  0.875 0 0  0.90625 0 0  0.9375 0 0  0.96875 0 0  1 0 0  1.03125 0 0  1.0625 0 0  1.09375 0 0  1.125 0 0  1.15625 0 0  1.1875 0 0  1.21875 0 0  1.25 0 0  1.28125 0 0  1.3125 0 0  1.34375 0 0  1.375 0 0  1.40625 0 0  1.4375 0 0  1.46875 0 0  1.5 0 0  0 0.03125 0  0.03125 0.03125 0  0.0625 0.03125 0  0.09375 0.03125 0  0.125 0.03125 0  0.15625 0.03125 0  0.1875 0.03125 0  0.21875 0.03125 0  0.25 0.03125 0  0.28125 0.03125 0  0.3125 0.03125 0  0.34375 0.03125 0  0.375 0.03125 0  0.40625 0.03125 0  0.4375 0.03125 0  0.46875 0.03125 0  0.5 0.03125 0  0.53125 0.03125 0  0.5625 0.03125 0  0.59375 0.03125 0  0.625 0.03125 0  0.65625 0.03125 0  0.6875 0.03125 0  0.71875 0.03125 0  0.75 0.03125 0  0.78125 0.03125 0  0.8125 0.03125 0  0.84375 0.03125 0  0.875 0.03125 0  0.90625 0.03125 0  0.9375 0.03125 0  0.96875 0.03125 0  1 0.03125 0  1.03125 0.03125 0  1.0625 0.03125 0  1.09375 0.03125 0  1.125 0.03125 0  1.15625 0.03125 0  1.1875 0.03125 0  1.21875 0.03125 0  1.25 0.03125 0  1.28125 0.03125 0  1.3125 0.03125 0  1.34375 0.03125 0  1.375 0.03125 0  1.40625 0.03125 0  1.4375 0.03125 0  1.46875 0.03125 0  1.5 0.03125 0  0 0.0625 0  0.03125 0.0625 0  0.0625 0.0625 0  0.09375 0.0625 0  0.125 0.0625 0  0.15625 0.0625 0  0.1875 0.0625 0  0.21875 0.0625 0  0.25 0.0625 0  0.28125 0.0625 0  0.3125 0.0625 0  0.34375 0.0625 0  0.375 0.0625 0  0.40625 0.0625 0  0.4375 0.0625 0  0.46875 0.0625 0  0.5 0.0625 0  0.53125 0.0625 0  0.5625 0.0625 0  0.59375 0.0625 0  0.625 0.0625 0  0.65625 0.0625 0  0.6875 0.0625 0  0.71875 0.0625 0  0.75 0.0625 0  0.78125 0.0625 0  0.8125 0.0625 0  0.84375 0.0625 0  0.875 0.0625 0  0.90625 0.0625 0  0.9375 0.0625 0  0.96875 0.0625 0  1 0.0625 0  1.03125 0.0625 0  1.0625 0.0625 0  1.09375 0.0625 0  1.125 0.0625 0  1.15625 0.0625 0  1.1875 0.0625 0  1.21875 0.0625 0  1.25 0.0625 0  1.28125 0.0625 0  1.3125 0.0625 0  1.34375 0.0625 0  1.375 0.0625 0  1.40625 0.0625 0  1.4375 0.0625 0  1.46875 0.0625 0  1.5 0.0625 0  0 0.09375 0  0.03125 0.09375 0  0.0625 0.09375 0  0.09375 0.09375 0  0.125 0.09375 0  0.15625 0.09375 0  0.1875 0.09375 0  0.21875 0.09375 0  0.25 0.09375 0  0.28125 0.09375 0  0.3125 0.09375 0  0.34375 0.09375 0  0.375 0.09375 0  0.40625 0.09375 0  0.4375 0.09375 0  0.46875 0.09375 0  0.5 0.09375 0  0.53125 0.09375 0  0.5625 0.09375 0  0.59375 0.09375 0  0.625 0.09375 0  0.65625 0.09375 0  0.6875 0.09375 0  0.71875 0.09375 0  0.75 0.09375 0  0.78125 0.09375 0  0.8125 0.09375 0  0.84375 0.09375 0  0.875 0.09375 0  0.90625 0.09375 0  0.9375 0.09375 0  0.96875 0.09375 0  1 0.09375 0  1.03125 0.09375 0  1.0625 0.09375 0  1.09375 0.09375 0  1.125 0.09375 0  1.15625 0.09375 0  1.1875 0.09375 0  1.21875 0.09375 0  1.25 0.09375 0  1.28125 0.09375 0  1.3125 0.09375 0  1.34375 0.09375 0  1.375 0.09375 0  1.40625 0.09375 0  1.4375 0.09375 0  1.46875 0.09375 0  1.5 0.09375 0  0 0.125 0  0.03125 0.125 0  0.0625 0.125 0  0.09375 0.125 0  0.125 0.125 0  0.15625 0.125 0  0.1875 0.125 0  0.21875 0.125 0  0.25 0.125 0  0.28125 0.125 0  0.3125 0.125 0  0.34375 0.125 0  0.375 0.125 0  0.40625 0.125 0  0.4375 0.125 0  0.46875 0.125 0  0.5 0.125 0  0.53125 0.125 0  0.5625 0.125 0  0.59375 0.125 0  0.625 0.125 0  0.65625 0.125 0  0.6875 0.125 0  0.71875 0.125 0  0.75 0.125 0  0.78125 0.125 0  0.8125 0.125 0  0.84375 0.125 0  0.875 0.125 0  0.90625 0.125 0  0.9375 0.125 0  0.96875 0.125 0  1 0.125 0  1.03125 0.125 0  1.0625 0.125 0  1.09375 0.125 0  1.125 0.125 0  1.15625 0.125 0  1.1875 0.125 0  1.21875 0.125 0  1.25 0.125 0  1.28125 0.125 0  1.3125 0.125 0  1.34375 0.125 0  1.375 0.125 0  1.40625 0.125 0  1.4375 0.125 0  1.46875 0.125 0  1.5 0.125 0  0 0.15625 0  0.03125 0.15625 0  0.0625 0.15625 0  0.09375 0.15625 0  0.125 0.15625 0  0.15625 0.15625 0  0.1875 0.15625 0  0.21875 0.15625 0  0.25 0.15625 0  0.28125 0.15625 0  0.3125 0.15625 0  0.34375 0.15625 0  0.375 0.15625 0  0.40625 0.15625 0  0.4375 0.15625 0  0.46875 0.15625 0  0.5 0.15625 0  0.53125 0.15625 0  0.5625 0.15625 0  0.59375 0.15625 0  0.625 0.15625 0  0.65625 0.15625 0  0.6875 0.15625 0  0.71875 0.15625 0  0.75 0.15625 0  0.78125 0.15625 0  0.8125 0.15625 0  0.84375 0.15625 0  0.875 0.15625 0  0.90625 0.15625 0  0.9375 0.15625 0  0.96875 0.15625 0  1 0.15625 0  1.03125 0.15625 0  1.0625 0.15625 0  1.09375 0.15625 0  1.125 0.15625 0  1.15625 0.15625 0  1.1875 0.15625 0  1.21875 0.15625 0  1.25 0.15625 0  1.28125 0.15625 0  1.3125 0.15625 0  1.34375 0.15625 0  1.375 0.15625 0  1.40625 0.15625 0  1.4375 0.15625 0  1.46875 0.15625 0  1.5 0.15625 0  0 0.1875 0  0.03125 0.1875 0  0.0625 0.1875 0  0.09375 0.1875 0  0.125 0.1875 0  0.15625 0.1875 0  0.1875 0.1875 0  0.21875 0.1875 0  0.25 0.1875 0  0.28125 0.1875 0  0.3125 0.1875 0  0.34375 0.1875 0  0.375 0.1875 0  0.40625 0.1875 0  0.4375 0.1875 0  0.46875 0.1875 0  0.5 0.1875 0  0.53125 0.1875 0  0.5625 0.1875 0  0.59375 0.1875 0  0.625 0.1875 0  0.65625 0.1875 0  0.6875 0.1875 0  0.71875 0.1875 0  0.75 0.1875 0  0.78125 0.1875 0  0.8125 0.1875 0  0.84375 0.1875 0  0.875 0.1875 0  0.90625 0.1875 0  0.9375 0.1875 0  0.96875 0.1875 0  1 0.1875 0  1.03125 0.1875 0  1.0625 0.1875 0  1.09375 0.1875 0  1.125 0.1875 0  1.15625 0.1875 0  1.1875 0.1875 0  1.21875 0.1875 0  1.25 0.1875 0  1.28125 0.1875 0  1.3125 0.1875 0  1.34375 0.1875 0  1.375 0.1875 0  1.40625 0.1875 0  1.4375 0.1875 0  1.46875 0.1875 0  1.5 0.1875 0  0 0.21875 0  0.03125 0.21875 0  0.0625 0.21875 0  0.09375 0.21875 0  0.125 0.21875 0  0.15625 0.21875 0  0.1875 0.21875 0  0.21875 0.21875 0  0.25 0.21875 0  0.28125 0.21875 0  0.3125 0.21875 0  0.34375 0.21875 0  0.375 0.21875 0  0.40625 0.21875 0  0.4375 0.21875 0  0.46875 0.21875 0  0.5 0.21875 0  0.53125 0.21875 0  0.5625 0.21875 0  0.59375 0.21875 0  0.625 0.21875 0  0.65625 0.21875 0  0.6875 0.21875 0  0.71875 0.21875 0  0.75 0.21875 0  0.78125 0.21875 0  0.8125 0.21875 0  0.84375 0.21875 0  0.875 0.21875 0  0.90625 0.21875 0  0.9375 0.21875 0  0.96875 0.21875 0  1 0.21875 0  1.03125 0.21875 0  1.0625 0.21875 0  1.09375 0.21875 0  1.125 0.21875 0  1.15625 0.21875 0  1.1875 0.21875 0  1.21875 0.21875 0  1.25 0.21875 0  1.28125 0.21875 0  1.3125 0.21875 0  1.34375 0.21875 0  1.375 0.21875 0  1.40625 0.21875 0  1.4375 0.21875 0  1.46875 0.21875 0  1.5 0.21875 0  0 0.25 0  0.03125 0.25 0  0.0625 0.25 0  0.09375 0.25 0  0.125 0.25 0  0.15625 0.25 0  0.1875 0.25 0  0.21875 0.25 0  0.25 0.25 0  0.28125 0.25 0  0.3125 0.25 0  0.34375 0.25 0  0.375 0.25 0  0.40625 0.25 0  0.4375 0.25 0  0.46875 0.25 0  0.5 0.25 0  0.53125 0.25 0  0.5625 0.25 0  0.59375 0.25 0  0.625 0.25 0  0.65625 0.25 0  0.6875 0.25 0  0.71875 0.25 0  0.75 0.25 0  0.78125 0.25 0  0.8125 0.25 0  0.84375 0.25 0  0.875 0.25 0  0.90625 0.25 0  0.9375 0.25 0  0.96875 0.25 0  1 0.25 0  1.03125 0.25 0  1.0625 0.25 0  1.09375 0.25 0  1.125 0.25 0  1.15625 0.25 0  1.1875 0.25 0  1.21875 0.25 0  1.25 0.25 0  1.28125 0.25 0  1.3125 0.25 0  1.34375 0.25 0  1.375 0.25 0  1.40625 0.25 0  1.4375 0.25 0  1.46875 0.25 0  1.5 0.25 0  0 0.28125 0  0.03125 0.28125 0  0.0625 0.28125 0  0.09375 0.28125 0  0.125 0.28125 0  0.15625 0.28125 0  0.1875 0.28125 0  0.21875 0.28125 0  0.25 0.28125 0  0.28125 0.28125 0  0.3125 0.28125 0  0.34375 0.28125 0  0.375 0.28125 0  0.40625 0.28125 0  0.4375 0.28125 0  0.46875 0.28125 0  0.5 0.28125 0  0.53125 0.28125 0  0.5625 0.28125 0  0.59375 0.28125 0  0.625 0.28125 0  0.65625 0.28125 0  0.6875 0.28125 0  0.71875 0.28125 0  0.75 0.28125 0  0.78125 0.28125 0  0.8125 0.28125 0  0.84375 0.28125 0  0.875 0.28125 0  0.90625 0.28125 0  0.9375 0.28125 0  0.96875 0.28125 0  1 0.28125 0  1.03125 0.28125 0  1.0625 0.28125 0  1.09375 0.28125 0  1.125 0.28125 0  1.15625 0.28125 0  1.1875 0.28125 0  1.21875 0.28125 0  1.25 0.28125 0  1.28125 0.28125 0  1.3125 0.28125 0  1.34375 0.28125 0  1.375 0.28125 0  1.40625 0.28125 0  1.4375 0.28125 0  1.46875 0.28125 0  1.5 0.28125 0  0 0.3125 0  0.03125 0.3125 0  0.0625 0.3125 0  0.09375 0.3125 0  0.125 0.3125 0  0.15625 0.3125 0  0.1875 0.3125 0  0.21875 0.3125 0  0.25 0.3125 0  0.28125 0.3125 0  0.3125 0.3125 0  0.34375 0.3125 0  0.375 0.3125 0  0.40625 0.3125 0  0.4375 0.3125 0  0.46875 0.3125 0  0.5 0.3125 0  0.53125 0.3125 0  0.5625 0.3125 0  0.59375 0.3125 0  0.625 0.3125 0  0.65625 0.3125 0  0.6875 0.3125 0  0.71875 0.3125 0  0.75 0.3125 0  0.78125 0.3125 0  0.8125 0.3125 0  0.84375 0.3125 0  0.875 0.3125 0  0.90625 0.3125 0  0.9375 0.3125 0  0.96875 0.3125 0  1 0.3125 0  1.03125 0.3125 0  1.0625 0.3125 0  1.09375 0.3125 0  1.125 0.3125 0  1.15625 0.3125 0  1.1875 0.3125 0  1.21875 0.3125 0  1.25 0.3125 0  1.28125 0.3125 0  1.3125 0.3125 0  1.34375 0.3125 0  1.375 0.3125 0  1.40625 0.3125 0  1.4375 0.3125 0  1.46875 0.3125 0  1.5 0.3125 0  0 0.34375 0  0.03125 0.34375 0  0.0625 0.34375 0  0.09375 0.34375 0  0.125 0.34375 0  0.15625 0.34375 0  0.1875 0.34375 0  0.21875 0.34375 0  0.25 0.34375 0  0.28125 0.34375 0  0.3125 0.34375 0  0.34375 0.34375 0  0.375 0.34375 0  0.40625 0.34375 0  0.4375 0.34375 0  0.46875 0.34375 0  0.5 0.34375 0  0.53125 0.34375 0  0.5625 0.34375 0  0.59375 0.34375 0  0.625 0.34375 0  0.65625 0.34375 0  0.6875 0.34375 0  0.71875 0.34375 0  0.75 0.34375 0  0.78125 0.34375 0  0.8125 0.34375 0  0.84375 0.34375 0  0.875 0.34375 0  0.90625 0.34375 0  0.9375 0.34375 0  0.96875 0.34375 0  1 0.34375 0  1.03125 0.34375 0  1.0625 0.34375 0  1.09375 0.34375 0  1.125 0.34375 0  1.15625 0.34375 0  1.1875 0.34375 0  1.21875 0.34375 0  1.25 0.34375 0  1.28125 0.34375 0  1.3125 0.34375 0  1.34375 0.34375 0  1.375 0.34375 0  1
[...]
<PointData  Scalars="f_49"> 
<DataArray  type="Float64"  Name="f_49"  format="ascii">1.4437442180531823e-01  1.3994608115046347e-01  1.3327477370953694e-01  1.2658020758523469e-01  1.2014495646490791e-01  1.1386235747004392e-01  1.0769287671010605e-01  1.0160481435696123e-01  9.5573788363061324e-02  8.9583707147825972e-02  8.3624715794260313e-02  7.7690870969762821e-02  7.1778255652288195e-02  6.5883752919858957e-02  6.0004381651145501e-02  5.4136999554650213e-02  4.8278211808801472e-02  4.2424389588382752e-02  3.6571753038136860e-02  3.0716499127522810e-02  2.4854962623958466e-02  1.8983796242306370e-02  1.3100150076976385e-02  7.2018253153292230e-03  1.2873764719915173e-03  -4.6438580026328001e-03  -1.0591805171117791e-02  -1.6555780571617409e-02  -2.2534664368240212e-02  -2.8527101883305525e-02  -3.4531698493776186e-02  -4.0547184151278254e-02  -4.6572531912566661e-02  -5.2607024713729446e-02  -5.8650273851452703e-02  -6.4702200910849994e-02  -7.0763013011606923e-02  -7.6833226290567505e-02  -8.2913891664916056e-02  -8.9007198764636530e-02  -9.5117913550597732e-02  -1.0125549816188885e-01  -1.0743659284854198e-01  -1.1369378208814181e-01  -1.2004211902138702e-01  -1.2652529391962644e-01  -1.3375333802487235e-01  -1.4086848796660581e-01  -1.4398797415778880e-01  1.4546206874541737e-01  1.4145858728537383e-01  1.3455745706357500e-01  1.2765941590332752e-01  1.2113328426736392e-01  1.1477811419910985e-01  1.0854007940648464e-01  1.0238899541801444e-01  9.6298436256628678e-02  9.0250586011536182e-02  8.4234493378166700e-02  7.8243623307707844e-02  7.2273796959410802e-02  6.6321819933687784e-02  6.0384726725508195e-02  5.4459437208675306e-02  4.8542643988514760e-02  4.2630821161798831e-02  3.6720302129599890e-02  3.0807404307468624e-02  2.4888588239161132e-02  1.8960636784841160e-02  1.3020833696901433e-02  7.0671152265748697e-03  1.0981674822476426e-03  -4.8865514677307615e-03  -1.0886872569512492e-02  -1.6902051006276370e-02  -2.2930952099120713e-02  -2.8972256214962726e-02  -3.5024651380465961e-02  -4.1086989610956415e-02  -4.7158393745690398e-02  -5.3238312361635350e-02  -5.9326530009616782e-02  -6.5423149438814152e-02  -7.1528582308909877e-02  -7.7643616554548808e-02  -8.3769722440423605e-02  -8.9909800551869937e-02  -9.6069786720833730e-02  -1.0226097122972801e-01  -1.0850328274904827e-01  -1.1483004229346236e-01  -1.2127452128437492e-01  -1.2787009031106006e-01  -1.3505729329782812e-01  -1.4209138069804272e-01  -1.4604963564568563e-01  1.4629417198969835e-01  1.4226774331486247e-01  1.3528489628874030e-01  1.2823964804161916e-01  1.2165799641758286e-01  1.1525399819746943e-01  1.0896689416021883e-01  1.0277285856176700e-01  9.6643223927076444e-02  9.0558401348695000e-02  8.4506393702727417e-02  7.8480087595281314e-02  7.2475035758500533e-02  6.6487951717254801e-02  6.0515866080722854e-02  5.4555732295102584e-02  4.8604285103257157e-02  4.2658031702097497e-02  3.6713319458978086e-02  3.0766458421523282e-02  2.4813887689059261e-02  1.8852371555601575e-02  1.2879201827304183e-02  6.8923733162644116e-03  8.9069624080694325e-04  -5.1261833967284239e-03  -1.1157866103889214e-02  -1.7203370633553185e-02  -2.3261361450798282e-02  -2.9330388791837664e-02  -3.5409101893527049e-02  -4.1496409098195276e-02  -4.7591574757423802e-02  -5.3694256964477098e-02  -5.9804500903773879e-02  -6.5922712102485986e-02  -7.2049653813078873e-02  -7.8186545904935512e-02  -8.4335435780893406e-02  -9.0500046090832287e-02  -9.6687499103602054e-02  -1.0291068668661477e-01  -1.0919150644512113e-01  -1.1556493941280284e-01  -1.2206183942402153e-01  -1.2872160977001990e-01  -1.3592647961449955e-01  -1.4295914286557204e-01  -1.4696565303400383e-01  1.4698411214605045e-01  1.4297006665495229e-01  1.3599439072572225e-01  1.2885954246177062e-01  1.2223218605856613e-01  1.1577534090610776e-01  1.0943669459039247e-01  1.0319721989415127e-01  9.7025414822822453e-02  9.0900448290363811e-02  8.4809581097756381e-02  7.8745221289866552e-02  7.2702677430250259e-02  6.6678565933318404e-02  6.0669896278176969e-02  5.4673626656848794e-02  4.8686486990875619e-02  4.2704944070682288e-02  3.6725253128035117e-02  3.0743578144945490e-02  2.4756174728256451e-02  1.8759623288155312e-02  1.2751084197024878e-02  6.7285288614371136e-03  6.9089128685664901e-04  -5.3619067051862866e-03  -1.1429074521539139e-02  -1.7509194196859069e-02  -2.3600529188802823e-02  -2.9701333751851182e-02  -3.5810107501571382e-02  -4.1925765085510797e-02  -4.8047717396736363e-02  -5.4175880057496191e-02  -6.0310636064421261e-02  -6.6452786709980602e-02  -7.2603542205131433e-02  -7.8764633539505871e-02  -8.4938716908433645e-02  -9.1130261701435136e-02  -9.7347288753265537e-02  -1.0360363704497644e-01  -1.0992184013888438e-01  -1.1633651928352304e-01  -1.2287505358859419e-01  -1.2956905924825957e-01  -1.3679281457321019e-01  -1.4382027713053758e-01  -1.4784876192617355e-01  1.4756591906993180e-01  1.4355773753452022e-01  1.3657551265951395e-01  1.2939591334386516e-01  1.2273438254842368e-01  1.1623116229904659e-01  1.0984870311486777e-01  1.0356854495723004e-01  9.7357699950799625e-02  9.1195187948747827e-02  8.5067924600442060e-02  7.8968014375814063e-02  7.2890611196055347e-02  6.6832278139262430e-02  6.0790025868015643e-02  5.4760824666007374e-02  4.8741387616556463e-02  4.2728100392748068e-02  3.6717047525109500e-02  3.0704126542027293e-02  2.4685254214977258e-02  1.8656658904089046e-02  1.2615225721399923e-02  6.5588271173165217e-03  4.8654802657732655e-04  -5.6012766641244868e-03  -1.1703245087078297e-02  -1.7817252145285033e-02  -2.3940936790406157e-02  -3.0072101920262242e-02  -3.6209025938577249e-02  -4.2350634666922425e-02  -4.8496545916558748e-02  -5.4647023881207069e-02  -6.0802888584849127e-02  -6.6965426133922742e-02  -7.3136356183320955e-02  -7.9317937442094838e-02  -8.5513375476930317e-02  -9.1727706333198586e-02  -9.7969484944095089e-02  -1.0425289703927861e-01  -1.1060031475601356e-01  -1.1704505664085682e-01  -1.2361178535731644e-01  -1.3032684106915923e-01  -1.3755969020119452e-01  -1.4458028538989329e-01  -1.4859996264272030e-01  1.4805723155551148e-01  1.4405195879027002e-01  1.3706572388968255e-01  1.2986344769571986e-01  1.2317412254465700e-01  1.1663382483273137e-01  1.1021535279898861e-01  1.0389904062285779e-01  9.7652448150924359e-02  9.1455006026335842e-02  8.5293536440306433e-02  7.9160054753051809e-02  7.3049705108609586e-02  6.6959089758125270e-02  6.0885286987336501e-02  5.4825327783196355e-02  4.8775935332413180e-02  4.2733407922835344e-02  3.6693604940470782e-02  3.0652042924861116e-02  2.4604126387057577e-02  1.8545524022636820e-02  1.2472656616923908e-02  6.3831976368351707e-03  2.7643125976709661e-04  -5.8466847880413470e-03  -1.1983815104939803e-02  -1.8131824168851732e-02  -2.4287452909672210e-02  -3.0447902517689088e-02  -3.6611208408355050e-02  -4.2776384642405851e-02  -4.8943388115099018e-02  -5.5112977884372437e-02  -6.1286541042603060e-02  -6.7465942735046455e-02  -7.3653457655970936e-02  -7.9851857700106832e-02  -8.6064809107006021e-02  -9.2297734537254428e-02  -9.8559445675038312e-02  -1.0486412235069337e-01  -1.1123367407735871e-01  -1.1770012822750865e-01  -1.2428601916417924e-01  -1.3101454145995897e-01  -1.3825195402199686e-01  -1.4526440514817096e-01  -1.4927657363265567e-01  1.4847492847667224e-01  1.4447134998867489e-01  1.3748174850674719e-01  1.3026303284974072e-01  1.2355049381838107e-01  1.1698122922117457e-01  1.1053260994273910e-01  1.0418451627066806e-01  9.7905893754081888e-02  9.1676531955796753e-02  8.5483349814387599e-02  7.9318471776374466e-02  7.3177167694495962e-02  6.7056182515483523e-02  6.0952753652922867e-02  5.4864055249385500e-02  4.8786887860803818e-02  4.2717497978906345e-02  3.6651498140334020e-02  3.0583917413194026e-02  2.4509443774790692e-02  1.8422906980994660e-02  1.2319985512837160e-02  6.1979974375756877e-03  5.6502278628185223e-05  -6.1025839181518427e-03  -1.2275491239580933e-02  -1.8457556754256896e-02  -2.4644281670623238e-02  -3.0832144391597541e-02  -3.7019012875969856e-02  -4.3204187901881727e-02  -4.9388207172844562e-02  -5.5572549424026035e-02  -6.1759342292722452e-02  -6.7951138178861809e-02  -7.4150807667405907e-02  -8.0361611790804213e-02  -8.6587592100331859e-02  -9.2834418516387962e-02  -9.9110985874490132e-02  -1.0543131501420924e-01  -1.1181681309578738e-01  -1.1829847755430603e-01  -1.2489736750425766e-01  -1.3163464981611830e-01  -1.3887440020122849e-01  -1.4587942891639760e-01  -1.4988413277168788e-01  1.4883054496704412e-01  1.4482775506981588e-01  1.3783441303213645e-01  1.3060185969845653e-01  1.2387012289984344e-01  1.1727732250078485e-01  1.1080280364508205e-01  1.0442689772256081e-01  9.8119694975248722e-02  9.1861236699101595e-02  8.5638699464179679e-02  7.9444432535286449e-02  7.3273922192035129e-02  6.7124149088290591e-02  6.0992609770794841e-02  5.4876729043385718e-02  4.8773494390743737e-02  4.2679190800115833e-02  3.6589214786650774e-02  3.0498025468691185e-02  2.4399353807957165e-02  1.8286797059114665e-02  1.2154851556617215e-02  6.0002061929432795e-03  -1.7719093330151593e-04  -6.3739044018964047e-03  -1.2583911947672779e-02  -1.8800280349956375e-02  -2.5016859805349418e-02  -3.1229384988560916e-02  -3.7435823462914714e-02  -4.3636160168810535e-02  -4.9831909780410223e-02  -5.6025589285356163e-02  -6.2220280708472832e-02  -6.8419336148007895e-02  -7.4626249870984193e-02  -8.0844734874127577e-02  -8.7079124726688453e-02  -9.3335227431324899e-02  -9.9621913826744554e-02  -1.0595298613756576e-01  -1.1234939997592674e-01  -1.1884137013895202e-01  -1.2544892901105426e-01  -1.3219186309625666e-01  -1.3943270489748844e-01  -1.4643147426965880e-01  -1.5042979080352306e-01  1.4913208543486969e-01  1.4512940113338879e-01  1.3813174371849291e-01  1.3088690515850807e-01  1.2413888458415311e-01  1.1752612061588413e-01  1.1102910910814379e-01  1.0462880123647043e-01  9.8295995702662453e-02  9.2010980421167038e-02  8.5761239761168229e-02  7.9539370824763436e-02  7.3341120914537067e-02  6.7163772692858711e-02  6.1005170836234975e-02  5.4863110149324004e-02  4.8734916583161030e-02  4.2617075670732522e-02  3.6504887681794808e-02  3.0392226343489731e-02  2.4271606149059394e-02  1.8134832052210472e-02  1.1974490307927108e-02  5.7861238242459690e-03  -4.2976980179628733e-04  -6.6672472345415575e-03  -1.2916634511642941e-02  -1.9167603064084684e-02  -2.5411930504655136e-02  -3.1644860922798328e-02  -3.7865094385594468e-02  -4.4074007088346481e-02  -5.0274681386682708e-02  -5.6471076453684502e-02  -6.2667452028420612e-02  -6.8868041732849467e-02  -7.5076948520149941e-02  -8.1298263839881882e-02  -8.7536511096102707e-02  -9.3797530241477800e-02  -1.0009008274225371e-01  -1.0642771844650534e-01  -1.1283099149725316e-01  -1.1932951198726476e-01  -1.2594256692087055e-01  -1.3268895298377709e-01  -1.3993005456409560e-01  -1.4692361265859177e-01  -1.5091648443144554e-01  1.4938541253421844e-01  1.4538237024445458e-01  1.3838011100915926e-01  1.3112427251762679e-01  1.2436217425340042e-01  1.1773215503827252e-01  1.1121551812939959e-01  1.0479367216256301e-01  9.8437853150806942e-02  9.2128577796101799e-02  8.5853583838034694e-02  7.9605684556578668e-02  7.3380886023849706e-02  6.7176792422930329e-02  6.0991649986214327e-02  5.4823731549746506e-02  4.8670882552408624e-02  4.2530034458285904e-02  3.6396654531370504e-02  3.0264170670965714e-02  2.4123675810455873e-02  1.7964410076743022e-02  1.1775812213356204e-02  5.5512375313817230e-03  -7.0805852638396551e-04  -6.9917699553079787e-03  -1.3284060595279427e-02  -1.9569528359487560e-02  -2.5837691563398060e-02  -3.2084217456579966e-02  -3.8309825127962112e-02  -4.4518419041920582e-02  -5.0715428649119265e-02  -5.6906678546908451e-02  -6.3097760926820623e-02  -6.9293775738704447e-02  -7.5499328356596743e-02  -8.1718745278940741e-02  -8.7956593259775284e-02  -9.4218616541047434e-02  -1.0051337459759080e-01  -1.0685412349164572e-01  -1.1326103845898096e-01  -1.1976323213664020e-01  -1.2637941266384659e-01  -1.3312762711122586e-01  -1.4036834432472978e-01  -1.4735744319302127e-01  -1.5134566046856185e-01  1.4959528059274180e-01  1.4559160912428359e-01  1.3858478426877116e-01  1.3131917381748462e-01  1.2454486139542603e-01  1.1789988504088370e-01  1.1136612616589862e-01  1.0492526873686076e-01  9.8548824706384944e-02  9.2217463759304480e-02  8.5919078093859333e-02  7.9646627977186912e-02  7.3396317659620222e-02  6.7166024712245559e-02  6.0954382233096051e-02  5.4760194270685507e-02  4.8581991130377394e-02  4.2417460550577143e-02  3.6262699640322034e-02  3.0111131083967468e-02  2.3952477160044783e-02  1.7772452300946956e-02  1.1555234386017148e-02  5.2897470201774908e-03  -1.0217788690704750e-03  -7.3609164496498099e-03  -1.3700966971473695e-02  -2.0019151522621636e-02  -2.6303543109675032e-02  -3.2552588155900078e-02  -3.8771351513636483e-02  -4.4967865443667522e-02  -5.1150734308837979e-02  -5.7327916930778405e-02  -6.3506281930757663e-02  -6.9691587785126435e-02  -7.5888688358349304e-02  -8.2101901363993202e-02  -8.8335629326184120e-02  -9.4595359991961600e-02  -1.0088934055570699e-01  -1.0723047615717121e-01  -1.1363855900937087e-01  -1.2014226142152898e-01  -1.2675980882052132e-01  -1.3350865041029639e-01  -1.4074847735347953e-01  -1.4773366182413511e-01  -1.5171788082445972e-01  1.4976576687389881e-01  1.4576134632249826e-01  1.3875025492163107e-01  1.3147613344978146e-01  1.2469134221058346e-01  1.1803353046765144e-01  1.1148498591516107e-01  1.0502753146446549e-01  9.8632832201683882e-02  9.2281610007002357e-02  8.5961801728818982e-02  7.9666408758433060e-02  7.3391711671858859e-02  6.7135730999435775e-02  6.0897365099353659e-02  5.4675877548375856e-02  4.8470532106428647e-02  4.2280053600169190e-02  3.6101814859875250e-02  2.9930146393268027e-02  2.3754150102792290e-02  1.7555177573906885e-02  1.1308671518239182e-02  4.9939203275818026e-03  -1.3857027657491721e-03  -7.7953762690587767e-03  -1.4188565318414037e-02  -2.0532815430187045e-02  -2.6818641621422244e-02  -3.3052407759766721e-02  -3.9247147613510405e-02  -4.5416773022395676e-02  -5.1573520275492314e-02  -5.7727270278836139e-02  -6.3885702567518271e-02  -7.0054733995562835e-02  -7.6239026301466256e-02  -8.2442536385707921e-02  -8.8669238981128440e-02  -9.4924179765596667e-02  -1.0121517378202305e-01  -1.0755471125938204e-01  -1.1396218425728370e-01  -1.2046585513922096e-01  -1.2708352613699903e-01  -1.3383215295683296e-01  -1.4107074610117959e-01  -1.4805248097493637e-01  -1.5203329667303206e-01  1.4990039542098768e-01  1.4589522041417660e-01  1.3888036215805830e-01  1.3159906337757635e-01  1.2480551981534811e-01  1.1813696917839386e-01  1.1157597652258977e-01  1.0510440740932643e-01  9.8693980971559764e-02  9.2325377574069667e-02  8.5986471467209280e-02  7.9670176925647526e-02  7.3372684752304657e-02  6.7091948968579146e-02  6.0826879149341512e-02  5.4576922969203537e-02  4.8341850612012002e-02  4.2121434893949032e-02  3.5914880482986779e-02  2.9718822570845176e-02  2.3523913709662718e-02  1.7307653991469957e-02  1.1031708290526243e-02  4.6528079792712172e-03  -1.8238416707230430e-03  -8.3278142913614239e-03  -1.4776263191820727e-02  -2.1127923816079034e-02  -2.7387557946491142e-02  -3.3578892958126910e-02  -3.9727184540702599e-02  -4.5853011908598994e-02  -5.1971506248021680e-02  -5.8093335212792453e-02  -6.4225935967323552e-02  -7.0374553696506234e-02  -7.6543053448760806e-02  -8.2734611746135375e-02  -8.8952495742187443e-02  -9.5201131199294423e-02  -1.0148779664355560e-01  -1.0782451691081353e-01  -1.1423027311148504e-01  -1.2073294317122822e-01  -1.2734995381565720e-01  -1.3409785084936726e-01  -1.4133505318194997e-01  -1.4831381720903553e-01  -1.5229181085243401e-01  1.5000213580760632e-01  1.4599628859238234e-01  1.3897832102250238e-01  1.3169127186970569e-01  1.2489076261189759e-01  1.1821364260318636e-01  1.1164265912140221e-01  1.0515965855075901e-01  9.8736344401456302e-02  9.2353288678058934e-02  8.5998218363035464e-02  7.9663845222744695e-02  7.3346103543610305e-02  6.7042637675145414e-02  6.0752015288044990e-02  5.4473372839813579e-02  4.8206349998085943e-02  4.1951127492816868e-02  3.5708481500284932e-02  2.9478494736329901e-02  2.3257191824426024e-02  1.7023286695720934e-02  1.0720037163430734e-02  4.2492242789542696e-03  -2.3760172599240157e-03  -9.0071632396063073e-03  -1.5498724753267593e-02  -2.1813653856400272e-02  -2.8000077690600866e-02  -3.4112096248703358e-02  -4.0188861721803221e-02  -4.6255137529444733e-02  -5.2325965974704576e-02  -5.8410453526127101e-02  -6.4514192893345881e-02  -7.0640734010334633e-02  -7.6792514982421844e-02  -8.2971555426508456e-02  -8.9180198801991087e-02  -9.5422135727669763e-02  -1.0170405654913695e-01  -1.0803750988198819e-01  -1.1444108175423343e-01  -1.2094230466697942e-01  -1.2755828321672374e-01  -1.3430523323670301e-01  -1.4154108016454664e-01  -1.4851741562429110e-01  -1.5249318238574444e-01  1.5007336569999938e-01  1.4606699552807173e-01  1.3904670215319270e-01  1.3175542754699429e-01  1.2494983173129466e-01  1.1826643554255131e-01  1.1168810152332874e-01  1.0519662827076182e-01  9.8763670345159746e-02  9.2369667124991742e-02  8.6002163751118965e-02  7.9653614333269979e-02  7.3319600293689016e-02  6.6997284970536392e-02  6.0684589182321155e-02  5.4379802662094377e-02  4.8081528241104447e-02  4.1788910098803242e-02  3.5502260851013094e-02  2.9223432295116158e-02  2.2955758750012691e-02  1.6692709160674273e-02  1.0367297572168140e-02  3.7545739202470359e-03  -3.0945113807263397e-03  -9.8853830378483852e-03  -1.6374858025158336e-02  -2.2565508434066215e-02  -2.8612013738792241e-02  -3.4606008729924316e-02  -4.0592100582812311e-02  -4.6590889183297915e-02  -5.2611854621681130e-02  -5.8659473963923986e-02  -6.4735890940334773e-02  -7.0842157371694262e-02  -7.6978904407404639e-02  -8.3146834546565893e-02  -8.9347320642303607e-02  -9.5583328856444591e-02  -1.0186100041531512e-01  -1.0819146018878181e-01  -1.1459295764570175e-01  -1.2109274503472353e-01  -1.2770767449153367e-01  -1.3445371808613932e-01  -1.4168842204649970e-01  -1.4866295105300190e-01  -1.5263711124003720e-01  1.5011582781793917e-01  1.4610913249774718e-01  1.3908739172782514e-01  1.3179350224872016e-01  1.2498479162723979e-01  1.1829754096651261e-01  1.1171468418666163e-01  1.0521797393322729e-01  9.8779020330203055e-02  9.2378156432195185e-02  8.6002780203170093e-02  7.9645131141780998e-02  7.3300482702703049e-02  6.6965549778277761e-02  6.0637591557349463e-02  5.4313907065180522e-02  4.7991601360651920e-02  4.1667556443748047e-02  3.5338717047146972e-02  2.9002698740669238e-02  2.2660783569427301e-02  1.6323861819240358e-02  9.9611244628477254e-03  3.1570286305099438e-03  -3.9444128285769904e-03  -1.0922938439831257e-02  -1.7342819841620116e-02  -2.3274344356136033e-02  -2.9119746994913057e-02  -3.4980412224107665e-02  -4.0879341339945044e-02  -4.6819897049040812e-02  -5.2800885249799187e-02  -5.8820402403877738e-02  -6.4876717076987389e-02  -7.0968434666413574e-02  -7.7094579072197383e-02  -8.3254760468468372e-02  -8.9449588713794145e-02  -9.5681484603449496e-02  -1.0195619085943046e-01  -1.0828453473457740e-01  -1.1468453596471381e-01  -1.2118326215626912e-01  -1.2779740232635514e-01  -1.3454278127958796e-01  -1.4177669674067878e-01  -1.4875011422990572e-01  -1.5272331358127589e-01  1.5013059268110976e-01  1.4612379965903519e-01  1.3910154915726902e-01  1.3180671213039935e-01  1.2499692338402382e-01  1.1830833245330387e-01  1.1172391638184853e-01  1.0522540585733457e-01  9.8784400313036994e-02  9.2381194667406505e-02  8.6003136023250659e-02  7.9642386940574864e-02  7.3294107938686390e-02  6.6954844404509439e-02  6.0621596367536522e-02  5.4291255097325221e-02  4.7960259293476568e-02  4.1624341102664796e-02  3.5278350787394566e-02  2.8916195907159953e-02  2.2532857117904381e-02  1.6135910923654274e-02  9.7539945018720910e-03  2.6958327714343652e-03  -4.4417994215444345e-03  -1.1505135368238772e-02  -1.8073924738076848e-02  -2.3673429883020198e-02  -2.9350586022526711e-02  -3.51