<?xml version="1.0"?>
<VTKFile type="UnstructuredGrid"  version="0.1"  >
<UnstructuredGrid>
<Piece  NumberOfPoints="1617" NumberOfCells="3072">
<Points>
<DataArray  type="Float64"  NumberOfComponents="3"  format="ascii">0 0 0  0.03125 0 0  0.0625 0 0  0.09375 0 0  0.125 0 0  0.15625 0 0  0.1875 0 0  0.21875 0 0  0.25 0 0  0.28125 0 0  0.3125 0 0  0.34375 0 0  0.375 0 0  0.40625 0 0  0.4375 0 0  0.46875 0 0  0.5 0 0  0.53125 0 0  0.5625 0 0  0.59375 0 0  0.625 0 0  0.65625 0 0  0.6875 0 0  0.71875 0 0  0.75 0 0  0.78125 0 0  0.8125 0 0  0.84375 0 0  0.875 0 0  0.90625 0 0  0.9375 0 0  0.96875 0 0  1 0 0  1.03125 0 0  1.0625 0 0  1.09375 0 0  1.125 0 0  1.15625 0 0  1.1875 0 0  1.21875 0 0  1.25 0 0  1.28125 0 0  1.3125 0 0  1.34375 0 0  1.375 0 0  1.40625 0 0  1.4375 0 0  1.46875 0 0  1.5 0 0  0 0.03125 0  0.03125 0.03125 0  0.0625 0.03125 0  0.09375 0.03125 0  0.125 0.03125 0  0.15625 0.03125 0  0.1875 0.03125 0  0.21875 0.03125 0  0.25 0.03125 0  0.28125 0.03125 0  0.3125 0.03125 0  0.34375 0.03125 0  0.375 0.03125 0  0.40625 0.03125 0  0.4375 0.03125 0  0.46875 0.03125 0  0.5 0.03125 0  0.53125 0.03125 0  0.5625 0.03125 0  0.59375 0.03125 0  0.625 0.03125 0  0.65625 0.03125 0  0.6875 0.03125 0  0.71875 0.03125 0  0.75 0.03125 0  0.78125 0.03125 0  0.8125 0.03125 0  0.84375 0.03125 0  0.875 0.03125 0  0.90625 0.03125 0  0.9375 0.03125 0  0.96875 0.03125 0  1 0.03125 0  1.03125 0.03125 0  1.0625 0.03125 0  1.09375 0.03125 0  1.125 0.03125 0  1.15625 0.03125 0  1.1875 0.03125 0  1.21875 0.03125 0  1.25 0.03125 0  1.28125 0.03125 0  1.3125 0.03125 0  1.34375 0.03125 0  1.375 0.03125 0  1.40625 0.03125 0  1.4375 0.03125 0  1.46875 0.03125 0  1.5 0.03125 0  0 0.0625 0  0.03125 0.0625 0  0.0625 0.0625 0  0.09375 0.0625 0  0.125 0.0625 0  0.15625 0.0625 0  0.1875 0.0625 0  0.21875 0.0625 0  0.25 0.0625 0  0.28125 0.0625 0  0.3125 0.0625 0  0.34375 0.0625 0  0.375 0.0625 0  0.40625 0.0625 0  0.4375 0.0625 0  0.46875 0.0625 0  0.5 0.0625 0  0.53125 0.0625 0  0.5625 0.0625 0  0.59375 0.0625 0  0.625 0.0625 0  0.65625 0.0625 0  0.6875 0.0625 0  0.71875 0.0625 0  0.75 0.0625 0  0.78125 0.0625 0  0.8125 0.0625 0  0.84375 0.0625 0  0.875 0.0625 0  0.90625 0.0625 0  0.9375 0.0625 0  0.96875 0.0625 0  1 0.0625 0  1.03125 0.0625 0  1.0625 0.0625 0  1.09375 0.0625 0  1.125 0.0625 0  1.15625 0.0625 0  1.1875 0.0625 0  1.21875 0.0625 0  1.25 0.0625 0  1.28125 0.0625 0  1.3125 0.0625 0  1.34375 0.0625 0  1.375 0.0625 0  1.40625 0.0625 0  1.4375 0.0625 0  1.46875 0.0625 0  1.5 0.0625 0  0 0.09375 0  0.03125 0.09375 0  0.0625 0.09375 0  0.09375 0.09375 0  0.125 0.09375 0  0.15625 0.09375 0  0.1875 0.09375 0  0.21875 0.09375 0  0.25 0.09375 0  0.28125 0.09375 0  0.3125 0.09375 0  0.34375 0.09375 0  0.375 0.09375 0  0.40625 0.09375 0  0.4375 0.09375 0  0.46875 0.09375 0  0.5 0.09375 0  0.53125 0.09375 0  0.5625 0.09375 0  0.59375 0.09375 0  0.625 0.09375 0  0.65625 0.09375 0  0.6875 0.09375 0  0.71875 0.09375 0  0.75 0.09375 0  0.78125 0.09375 0  0.8125 0.09375 0  0.84375 0.09375 0  0.875 0.09375 0  0.90625 0.09375 0  0.9375 0.09375 0  0.96875 0.09375 0  1 0.09375 0  1.03125 0.09375 0  1.0625 0.09375 0  1.09375 0.09375 0  1.125 0.09375 0  1.15625 0.09375 0  1.1875 0.09375 0  1.21875 0.09375 0  1.25 0.09375 0  1.28125 0.09375 0  1.3125 0.09375 0  1.34375 0.09375 0  1.375 0.09375 0  1.40625 0.09375 0  1.4375 0.09375 0  1.46875 0.09375 0  1.5 0.09375 0  0 0.125 0  0.03125 0.125 0  0.0625 0.125 0  0.09375 0.125 0  0.125 0.125 0  0.15625 0.125 0  0.1875 0.125 0  0.21875 0.125 0  0.25 0.125 0  0.28125 0.125 0  0.3125 0.125 0  0.34375 0.125 0  0.375 0.125 0  0.40625 0.125 0  0.4375 0.125 0  0.46875 0.125 0  0.5 0.125 0  0.53125 0.125 0  0.5625 0.125 0  0.59375 0.125 0  0.625 0.125 0  0.65625 0.125 0  0.6875 0.125 0  0.71875 0.125 0  0.75 0.125 0  0.78125 0.125 0  0.8125 0.125 0  0.84375 0.125 0  0.875 0.125 0  0.90625 0.125 0  0.9375 0.125 0  0.96875 0.125 0  1 0.125 0  1.03125 0.125 0  1.0625 0.125 0  1.09375 0.125 0  1.125 0.125 0  1.15625 0.125 0  1.1875 0.125 0  1.21875 0.125 0  1.25 0.125 0  1.28125 0.125 0  1.3125 0.125 0  1.34375 0.125 0  1.375 0.125 0  1.40625 0.125 0  1.4375 0.125 0  1.46875 0.125 0  1.5 0.125 0  0 0.15625 0  0.03125 0.15625 0  0.0625 0.15625 0  0.09375 0.15625 0  0.125 0.15625 0  0.15625 0.15625 0  0.1875 0.15625 0  0.21875 0.15625 0  0.25 0.15625 0  0.28125 0.15625 0  0.3125 0.15625 0  0.34375 0.15625 0  0.375 0.15625 0  0.40625 0.15625 0  0.4375 0.15625 0  0.46875 0.15625 0  0.5 0.15625 0  0.53125 0.15625 0  0.5625 0.15625 0  0.59375 0.15625 0  0.625 0.15625 0  0.65625 0.15625 0  0.6875 0.15625 0  0.71875 0.15625 0  0.75 0.15625 0  0.78125 0.15625 0  0.8125 0.15625 0  0.84375 0.15625 0  0.875 0.15625 0  0.90625 0.15625 0  0.9375 0.15625 0  0.96875 0.15625 0  1 0.15625 0  1.03125 0.15625 0  1.0625 0.15625 0  1.09375 0.15625 0  1.125 0.15625 0  1.15625 0.15625 0  1.1875 0.15625 0  1.21875 0.15625 0  1.25 0.15625 0  1.28125 0.15625 0  1.3125 0.15625 0  1.34375 0.15625 0  1.375 0.15625 0  1.40625 0.15625 0  1.4375 0.15625 0  1.46875 0.15625 0  1.5 0.15625 0  0 0.1875 0  0.03125 0.1875 0  0.0625 0.1875 0  0.09375 0.1875 0  0.125 0.1875 0  0.15625 0.1875 0  0.1875 0.1875 0  0.21875 0.1875 0  0.25 0.1875 0  0.28125 0.1875 0  0.3125 0.1875 0  0.34375 0.1875 0  0.375 0.1875 0  0.40625 0.1875 0  0.4375 0.1875 0  0.46875 0.1875 0  0.5 0.1875 0  0.53125 0.1875 0  0.5625 0.1875 0  0.59375 0.1875 0  0.625 0.1875 0  0.65625 0.1875 0  0.6875 0.1875 0  0.71875 0.1875 0  0.75 0.1875 0  0.78125 0.1875 0  0.8125 0.1875 0  0.84375 0.1875 0  0.875 0.1875 0  0.90625 0.1875 0  0.9375 0.1875 0  0.96875 0.1875 0  1 0.1875 0  1.03125 0.1875 0  1.0625 0.1875 0  1.09375 0.1875 0  1.125 0.1875 0  1.15625 0.1875 0  1.1875 0.1875 0  1.21875 0.1875 0  1.25 0.1875 0  1.28125 0.1875 0  1.3125 0.1875 0  1.34375 0.1875 0  1.375 0.1875 0  1.40625 0.1875 0  1.4375 0.1875 0  1.46875 0.1875 0  1.5 0.1875 0  0 0.21875 0  0.03125 0.21875 0  0.0625 0.21875 0  0.09375 0.21875 0  0.125 0.21875 0  0.15625 0.21875 0  0.1875 0.21875 0  0.21875 0.21875 0  0.25 0.21875 0  0.28125 0.21875 0  0.3125 0.21875 0  0.34375 0.21875 0  0.375 0.21875 0  0.40625 0.21875 0  0.4375 0.21875 0  0.46875 0.21875 0  0.5 0.21875 0  0.53125 0.21875 0  0.5625 0.21875 0  0.59375 0.21875 0  0.625 0.21875 0  0.65625 0.21875 0  0.6875 0.21875 0  0.71875 0.21875 0  0.75 0.21875 0  0.78125 0.21875 0  0.8125 0.21875 0  0.84375 0.21875 0  0.875 0.21875 0  0.90625 0.21875 0  0.9375 0.21875 0  0.96875 0.21875 0  1 0.21875 0  1.03125 0.21875 0  1.0625 0.21875 0  1.09375 0.21875 0  1.125 0.21875 0  1.15625 0.21875 0  1.1875 0.21875 0  1.21875 0.21875 0  1.25 0.21875 0  1.28125 0.21875 0  1.3125 0.21875 0  1.34375 0.21875 0  1.375 0.21875 0  1.40625 0.21875 0  1.4375 0.21875 0  1.46875 0.21875 0  1.5 0.21875 0  0 0.25 0  0.03125 0.25 0  0.0625 0.25 0  0.09375 0.25 0  0.125 0.25 0  0.15625 0.25 0  0.1875 0.25 0  0.21875 0.25 0  0.25 0.25 0  0.28125 0.25 0  0.3125 0.25 0  0.34375 0.25 0  0.375 0.25 0  0.40625 0.25 0  0.4375 0.25 0  0.46875 0.25 0  0.5 0.25 0  0.53125 0.25 0  0.5625 0.25 0  0.59375 0.25 0  0.625 0.25 0  0.65625 0.25 0  0.6875 0.25 0  0.71875 0.25 0  0.75 0.25 0  0.78125 0.25 0  0.8125 0.25 0  0.84375 0.25 0  0.875 0.25 0  0.90625 0.25 0  0.9375 0.25 0  0.96875 0.25 0  1 0.25 0  1.03125 0.25 0  1.0625 0.25 0  1.09375 0.25 0  1.125 0.25 0  1.15625 0.25 0  1.1875 0.25 0  1.21875 0.25 0  1.25 0.25 0  1.28125 0.25 0  1.3125 0.25 0  1.34375 0.25 0  1.375 0.25 0  1.40625 0.25 0  1.4375 0.25 0  1.46875 0.25 0  1.5 0.25 0  0 0.28125 0  0.03125 0.28125 0  0.0625 0.28125 0  0.09375 0.28125 0  0.125 0.28125 0  0.15625 0.28125 0  0.1875 0.28125 0  0.21875 0.28125 0  0.25 0.28125 0  0.28125 0.28125 0  0.3125 0.28125 0  0.34375 0.28125 0  0.375 0.28125 0  0.40625 0.28125 0  0.4375 0.28125 0  0.46875 0.28125 0  0.5 0.28125 0  0.53125 0.28125 0  0.5625 0.28125 0  0.59375 0.28125 0  0.625 0.28125 0  0.65625 0.28125 0  0.6875 0.28125 0  0.71875 0.28125 0  0.75 0.28125 0  0.78125 0.28125 0  0.8125 0.28125 0  0.84375 0.28125 0  0.875 0.28125 0  0.90625 0.28125 0  0.9375 0.28125 0  0.96875 0.28125 0  1 0.28125 0  1.03125 0.28125 0  1.0625 0.28125 0  1.09375 0.28125 0  1.125 0.28125 0  1.15625 0.28125 0  1.1875 0.28125 0  1.21875 0.28125 0  1.25 0.28125 0  1.28125 0.28125 0  1.3125 0.28125 0  1.34375 0.28125 0  1.375 0.28125 0  1.40625 0.28125 0  1.4375 0.28125 0  1.46875 0.28125 0  1.5 0.28125 0  0 0.3125 0  0.03125 0.3125 0  0.0625 0.3125 0  0.09375 0.3125 0  0.125 0.3125 0  0.15625 0.3125 0  0.1875 0.3125 0  0.21875 0.3125 0  0.25 0.3125 0  0.28125 0.3125 0  0.3125 0.3125 0  0.34375 0.3125 0  0.375 0.3125 0  0.40625 0.3125 0  0.4375 0.3125 0  0.46875 0.3125 0  0.5 0.3125 0  0.53125 0.3125 0  0.5625 0.3125 0  0.59375 0.3125 0  0.625 0.3125 0  0.65625 0.3125 0  0.6875 0.3125 0  0.71875 0.3125 0  0.75 0.3125 0  0.78125 0.3125 0  0.8125 0.3125 0  0.84375 0.3125 0  0.875 0.3125 0  0.90625 0.3125 0  0.9375 0.3125 0  0.96875 0.3125 0  1 0.3125 0  1.03125 0.3125 0  1.0625 0.3125 0  1.09375 0.3125 0  1.125 0.3125 0  1.15625 0.3125 0  1.1875 0.3125 0  1.21875 0.3125 0  1.25 0.3125 0  1.28125 0.3125 0  1.3125 0.3125 0  1.34375 0.3125 0  1.375 0.3125 0  1.40625 0.3125 0  1.4375 0.3125 0  1.46875 0.3125 0  1.5 0.3125 0  0 0.34375 0  0.03125 0.34375 0  0.0625 0.34375 0  0.09375 0.34375 0  0.125 0.34375 0  0.15625 0.34375 0  0.1875 0.34375 0  0.21875 0.34375 0  0.25 0.34375 0  0.28125 0.34375 0  0.3125 0.34375 0  0.34375 0.34375 0  0.375 0.34375 0  0.40625 0.34375 0  0.4375 0.34375 0  0.46875 0.34375 0  0.5 0.34375 0  0.53125 0.34375 0  0.5625 0.34375 0  0.59375 0.34375 0  0.625 0.34375 0  0.65625 0.34375 0  0.6875 0.34375 0  0.71875 0.34375 0  0.75 0.34375 0  0.78125 0.34375 0  0.8125 0.34375 0  0.84375 0.34375 0  0.875 0.34375 0  0.90625 0.34375 0  0.9375 0.34375 0  0.96875 0.34375 0  1 0.34375 0  1.03125 0.34375 0  1.0625 0.34375 0  1.09375 0.34375 0  1.125 0.34375 0  1.15625 0.34375 0  1.1875 0.34375 0  1.21875 0.34375 0  1.25 0.34375 0  1.28125 0.34375 0  1.3125 0.34375 0  1.34375 0.34375 0  1.375 0.34375 0  1
[...]
<PointData  Scalars="f_49"> 
<DataArray  type="Float64"  Name="f_49"  format="ascii">-7.9998857468972645e-02  -7.8171579108904751e-02  -7.3700607860678766e-02  -6.9707223748297936e-02  -6.5902861904149429e-02  -6.2219407112467512e-02  -5.8630365653901687e-02  -5.5113442281914081e-02  -5.1655276710349640e-02  -4.8247888212007574e-02  -4.4886181813162306e-02  -4.1566299419098465e-02  -3.8284764938053974e-02  -3.5038119181894950e-02  -3.1822796029558217e-02  -2.8635095021112198e-02  -2.5471190111724353e-02  -2.2327156641891579e-02  -1.9199014350642259e-02  -1.6082787374870525e-02  -1.2974580059696811e-02  -9.8706632457968065e-03  -6.7675612021970300e-03  -3.6621260526792268e-03  -5.5158588330700474e-04  2.5664443272519614e-03  5.6939934583826821e-03  8.8328030476348632e-03  1.1984423091370022e-02  1.5150319374217168e-02  1.8331976456685502e-02  2.1530983549789991e-02  2.4749095529159423e-02  2.7988266358983147e-02  3.1250656165164335e-02  3.4538614642672674e-02  3.7854644555813249e-02  4.1201351349158047e-02  4.4581382697384493e-02  4.7997481047166293e-02  5.1452551324425458e-02  5.4951004231039609e-02  5.8498863128344861e-02  6.2108327626345966e-02  6.5810419181525928e-02  6.9548378967417931e-02  7.3411818366862933e-02  7.9558357940468505e-02  7.9690443399310196e-02  -8.0868119045345493e-02  -8.0102410751263842e-02  -7.5056793577615563e-02  -7.0968156376353675e-02  -6.7095108301912412e-02  -6.3334778441516401e-02  -5.9674465505006685e-02  -5.6090825684597501e-02  -5.2568724389444675e-02  -4.9098856503864023e-02  -4.5675330608382372e-02  -4.2293875406345938e-02  -3.8950824706987429e-02  -3.5642642619614411e-02  -3.2365740655788372e-02  -2.9116421578979677e-02  -2.5890874559324008e-02  -2.2685195469588595e-02  -1.9495426571909238e-02  -1.6317615188231528e-02  -1.3147889705584446e-02  -9.9825472379216577e-03  -6.8181425021590497e-03  -3.6515637697031558e-03  -4.8008093221908326e-04  2.6986460016118169e-03  5.8866024716055778e-03  9.0854943326238915e-03  1.2296849470861512e-02  1.5522128943151674e-02  1.8762830844959832e-02  2.2020574235263532e-02  2.5297156331399045e-02  2.8594581721356645e-02  3.1915066413230490e-02  3.5261021595672251e-02  3.8635023936324168e-02  4.2039785403203196e-02  4.5478147273381175e-02  4.8953216896973142e-02  5.2468717094691149e-02  5.6030297486649033e-02  5.9646961013499936e-02  6.3334338528785741e-02  6.7126094699148792e-02  7.1011041190732122e-02  7.5102678450081381e-02  8.0595199326513295e-02  8.1376910262217703e-02  -8.2243257455173441e-02  -8.1507909907937534e-02  -7.6181498575071532e-02  -7.2070516888392680e-02  -6.8147823499384086e-02  -6.4321108735374360e-02  -6.0598195801067310e-02  -5.6955571355204113e-02  -5.3376597011070830e-02  -4.9851094614021881e-02  -4.6372529949890974e-02  -4.2936262833878684e-02  -3.9538441257773789e-02  -3.6175451658528916e-02  -3.2843684647052181e-02  -2.9539447860373332e-02  -2.6258941687966234e-02  -2.2998267146140585e-02  -1.9753458552538392e-02  -1.6520540686945910e-02  -1.3295609349502869e-02  -1.0074929523770190e-02  -6.8550389302865500e-03  -3.6328390226024452e-03  -4.0565334186912531e-04  2.8287629990634538e-03  6.0722689171225624e-03  9.3264310937887021e-03  1.2592647621639719e-02  1.5872278229113773e-02  1.9166759898171154e-02  2.2477693942114397e-02  2.5806899392529579e-02  2.9156434819988239e-02  3.2528595423588498e-02  3.5925894226470204e-02  3.9351039160905654e-02  4.2806924831457663e-02  4.6296675592848488e-02  4.9823872063168684e-02  5.3393021518840920e-02  5.7011098435089794e-02  6.0688696539620619e-02  6.4444335839910188e-02  6.8310709801030642e-02  7.2275625178309780e-02  7.6440860585744341e-02  8.1894962849325584e-02  8.2676834470678764e-02  -8.3378898610901697e-02  -8.2624137097359440e-02  -7.7245632886542154e-02  -7.3099968855914382e-02  -6.9127987648110456e-02  -6.5243733234169543e-02  -6.1465919705577757e-02  -5.7769573664341413e-02  -5.4137425126346443e-02  -5.0559305623278018e-02  -4.7028418290123303e-02  -4.3539966550311025e-02  -4.0090018837797246e-02  -3.6674937712344771e-02  -3.3291120215283881e-02  -2.9934890181321731e-02  -2.6602456071606852e-02  -2.3289904452984962e-02  -1.9993223467511916e-02  -1.6708358638700838e-02  -1.3431302576240600e-02  -1.0158213815032431e-02  -6.8855500347736300e-03  -3.6101905542421106e-03  -3.2951746198559868e-04  2.9585707338304766e-03  6.2557231509739802e-03  9.5632665533568577e-03  1.2882371554122474e-02  1.6214218944773207e-02  1.9560136583201250e-02  2.2921691139580654e-02  2.6300733224326741e-02  2.9699404321676014e-02  3.3120118730805392e-02  3.6565534525271878e-02  4.0038528944142657e-02  4.3542200331020200e-02  4.7079933774169351e-02  5.0655664255070051e-02  5.4274372936786483e-02  5.7943608656814347e-02  6.1674444293081096e-02  6.5485131540818683e-02  6.9406733250492625e-02  7.3419282954519341e-02  7.7614113000667284e-02  8.3057132467729153e-02  8.3834973618963943e-02  -8.4364365674600636e-02  -8.3601171209806341e-02  -7.8195295573344231e-02  -7.4012775099519923e-02  -7.0000788152635537e-02  -6.6070774256027004e-02  -6.2247229324325845e-02  -5.8504174754234646e-02  -5.4824812967887118e-02  -5.1199382959535647e-02  -4.7621029250745621e-02  -4.4084981240055297e-02  -4.0587342696764180e-02  -3.7124528062212656e-02  -3.3692993149573927e-02  -3.0289113442093531e-02  -2.6909124810044420e-02  -2.3549100020236413e-02  -2.0204959403722730e-02  -1.6872523526374989e-02  -1.3547615439540323e-02  -1.0226211566332728e-02  -6.9046241256884465e-03  -3.5796785098313206e-03  -2.4883561283243143e-04  3.0897863784933853e-03  6.4375089275172511e-03  9.7952872004245881e-03  1.3163948407243511e-02  1.6544414863311055e-02  1.9937869069326940e-02  2.3345845065225017e-02  2.6770253385273359e-02  3.0213359421096153e-02  3.3677737829273406e-02  3.7166222713598429e-02  4.0681871187803628e-02  4.4227961620377079e-02  4.7808060675047385e-02  5.1426283477000539e-02  5.5087767246526691e-02  5.8800105006049992e-02  6.2574090098570484e-02  6.6426977002120996e-02  7.0387481285375683e-02  7.4430786751617115e-02  7.8643771160598230e-02  8.4085486099143278e-02  8.4864048476465712e-02  -8.5221724274213498e-02  -8.4451403520465179e-02  -7.9027406106463263e-02  -7.4819560733826646e-02  -7.0776447228131784e-02  -6.6809794694043786e-02  -6.2947733771916703e-02  -5.9164148565754318e-02  -5.5443178543473769e-02  -5.1775443864903348e-02  -4.8154196311115276e-02  -4.4574844053878092e-02  -4.1033625824574781e-02  -3.7527084429215950e-02  -3.4051795216544327e-02  -3.0604233056248948e-02  -2.7180694981441100e-02  -2.3777254671469177e-02  -2.0389752875912437e-02  -1.7013840370756567e-02  -1.3645092633464138e-02  -1.0279205160371440e-02  -6.9122527877069099e-03  -3.5409595226171308e-03  -1.6289378992058223e-04  3.2234947924772561e-03  6.6190315499152505e-03  1.0024123072601645e-02  1.3439114499591665e-02  1.6864595568826093e-02  2.0301594881559644e-02  2.3751654021320977e-02  2.7216808924963531e-02  3.0699518241991654e-02  3.4202574442662323e-02  3.7729022837417754e-02  4.1282105837164802e-02  4.4865249933910688e-02  4.8482123496339818e-02  5.2136881581078695e-02  5.5834604100640853e-02  5.9582661905531832e-02  6.3391310437151530e-02  6.7276789445752772e-02  7.1266089838262159e-02  7.5331354589810912e-02  7.9558239203439907e-02  8.5001735269501971e-02  8.5780330058128323e-02  -8.5969826238457669e-02  -8.5194557158380563e-02  -7.9757102965713672e-02  -7.5528976682963572e-02  -7.1460392793267838e-02  -6.7463772234349670e-02  -6.3569042154064156e-02  -5.9750494930768797e-02  -5.5993091242824054e-02  -5.2287757874983389e-02  -4.8628000666736858e-02  -4.5009487341918071e-02  -4.1428656653853951e-02  -3.7882243510329226e-02  -3.4367001925727586e-02  -3.0879561216720978e-02  -2.7416327604008073e-02  -2.3973408075682892e-02  -2.0546566868826659e-02  -1.7131243110091413e-02  -1.3722669457765275e-02  -1.0316122591482957e-02  -6.9072992884185291e-03  -3.4927427505507674e-03  -7.0169945686667672e-05  3.3614631126428372e-03  6.8022275070515701e-03  1.0251729152546973e-02  1.3709662109905638e-02  1.7176228393673963e-02  2.0652346143601015e-02  2.4139666994510568e-02  2.7640472724033471e-02  3.1157523436236942e-02  3.4693908653538240e-02  3.8252928750288850e-02  4.1838019111335938e-02  4.5452726991393633e-02  4.9100761586031640e-02  5.2786226779028181e-02  5.6514036084732870e-02  6.0291241681516311e-02  6.4127557245353281e-02  6.8038407377042212e-02  7.2049643513734621e-02  7.6131505314440184e-02  8.0369441128981992e-02  8.5815798274811436e-02  8.6594079412394512e-02  -8.6621601592729885e-02  -8.5842685319796080e-02  -8.0393753366175505e-02  -7.6148850826224912e-02  -7.2059366347714704e-02  -6.8037792221905216e-02  -6.4115219245847510e-02  -6.0266531780689921e-02  -5.6477244600971935e-02  -5.2738585266923065e-02  -4.9044375623438163e-02  -4.5390557017221771e-02  -4.1773806249372367e-02  -3.8191096474669943e-02  -3.4639411740963473e-02  -3.1115594919856916e-02  -2.7616224927719400e-02  -2.4137499011710115e-02  -2.0675133740693304e-02  -1.7224327090556948e-02  -1.3779855128661157e-02  -1.0336377964636096e-02  -6.8889878511919226e-03  -3.4339049784503353e-03  3.0945747625941742e-05  3.5058115811003507e-03  6.9895922089111117e-03  1.0480722003608611e-02  1.3978047489661177e-02  1.7481384744781388e-02  2.0991684550560802e-02  2.4510911204286900e-02  2.8041788489149778e-02  3.1587531076493626e-02  3.5151624003643897e-02  3.8737669855682562e-02  4.2349302381497603e-02  4.5990163943965066e-02  4.9663958303172759e-02  5.3374682903900898e-02  5.7127037661250026e-02  6.0927745199606170e-02  6.4786048965033122e-02  6.8716769193811839e-02  7.2745012125777594e-02  7.6839745548605926e-02  8.1086539155186724e-02  8.6535980473784413e-02  8.7313580267057642e-02  -8.7186183562451960e-02  -8.6404412480468609e-02  -8.0945367387879705e-02  -7.6686367790657073e-02  -7.2579429993884864e-02  -6.8536764270398134e-02  -6.4590398634493534e-02  -6.0715692237227961e-02  -5.6898523033698731e-02  -5.3130413063258768e-02  -4.9405477816708496e-02  -4.5719915041295196e-02  -4.2070652872007931e-02  -3.8454924564356861e-02  -3.4869981473064672e-02  -3.1312938100610907e-02  -2.7780624855670951e-02  -2.4269419615623875e-02  -2.0775064597576182e-02  -1.7292522568727993e-02  -1.3815991684561319e-02  -1.0339232842641001e-02  -6.8563571552154963e-03  -3.3629931174125847e-03  1.4264037664483316e-04  3.6594838638413971e-03  7.1845591784536972e-03  1.0714578103085836e-02  1.4247351482399976e-02  1.7782457137702656e-02  2.1321206519916105e-02  2.4866230927636148e-02  2.8420984455842162e-02  3.1989327590629141e-02  3.5575241741754769e-02  3.9182664106895186e-02  4.2815414442689582e-02  4.6477193126002833e-02  5.0171652516951104e-02  5.3902642553017042e-02  5.7674627983910064e-02  6.1494017507413408e-02  6.5369660742258015e-02  6.9315928363538670e-02  7.3357422065152139e-02  7.7462203297836568e-02  8.1716044942504229e-02  8.7168290775450186e-02  8.7945015787101358e-02  -8.7670468088441700e-02  -8.6886341194983868e-02  -8.1418402352541192e-02  -7.7147493782427204e-02  -7.3025858446434930e-02  -6.8965308542224837e-02  -6.4998624802835955e-02  -6.1101484220707693e-02  -5.7260021477776320e-02  -5.3466006748517265e-02  -4.9713790343062593e-02  -4.5999793041624971e-02  -4.2321176865210225e-02  -3.8675427274980315e-02  -3.5060077271861306e-02  -3.1472558723357497e-02  -2.7910040330723942e-02  -2.4369209327736355e-02  -2.0845976389087497e-02  -1.7335156761732248e-02  -1.3830282665688665e-02  -1.0323827859645919e-02  -6.8082837315836722e-03  -3.2781506180832184e-03  2.6793783837344103e-04  3.8266626940219924e-03  7.3919178456618726e-03  1.0957890516847757e-02  1.4521305328343196e-02  1.8081985559254478e-02  2.1642252206457775e-02  2.5205961858704086e-02  2.8777670975047569e-02  3.2362079503606332e-02  3.5963728766262269e-02  3.9586875334246943e-02  4.3235470898349247e-02  4.6913207834860540e-02  5.0623626253077113e-02  5.4370384281718885e-02  5.8157692775219011e-02  6.1991661253770723e-02  6.5880802575047109e-02  6.9839138606214227e-02  7.3890906760009312e-02  7.8003485535335870e-02  8.2262843051472315e-02  8.7717358731024181e-02  8.8493138052154308e-02  -8.8079972105161428e-02  -8.7293861060034242e-02  -8.1818211463367360e-02  -7.7537275797992078e-02  -7.3403282339063389e-02  -6.9327630688119743e-02  -6.5343688092515367e-02  -6.1427332582894872e-02  -5.7564876471855965e-02  -5.3748268010087308e-02  -4.9972025372652044e-02  -4.6232739797520940e-02  -4.2527757186176289e-02  -3.8854772911195719e-02  -3.5211578548481920e-02  -3.1595934632047060e-02  -2.8005419034784595e-02  -2.4437181762519238e-02  -2.0887534565251154e-02  -1.7351391770300602e-02  -1.3821668599309824e-02  -1.0289079970265333e-02  -6.7434134786465705e-03  -3.1769005812430869e-03  4.1125317430134342e-04  4.0135619484453220e-03  7.6184945972991736e-03  1.1216648319962223e-02  1.4804127693369305e-02  1.8382193903610140e-02  2.1955322875540667e-02  2.5529364084139659e-02  2.9110357727036091e-02  3.2703952539031765e-02  3.6315207164781559e-02  3.9948589543098795e-02  4.3608061281632166e-02  4.7297197232028666e-02  5.1019340194399548e-02  5.4777900616154979e-02  5.8576810411416387e-02  6.2421885588417936e-02  6.6321338811316161e-02  7.0288905162821144e-02  7.4348539952342474e-02  7.8467086656826501e-02  8.2730670621681213e-02  8.8186881128295105e-02  8.8961711205965036e-02  -8.8419225232720514e-02  -8.7631452049451983e-02  -8.2149256064960499e-02  -7.7859987844429698e-02  -7.3715726993957870e-02  -6.9627486713792874e-02  -6.5629081937101888e-02  -6.1696509242918654e-02  -5.7816190113455533e-02  -5.3980180146278596e-02  -5.0183096576437776e-02  -4.6421630667395922e-02  -4.2693234752493918e-02  -3.8995733462098843e-02  -3.5327099546968166e-02  -3.1685366431709265e-02  -2.8068525596094556e-02  -2.4474310991915722e-02  -2.0899738236494450e-02  -1.7340313481983265e-02  -1.3788731362719591e-02  -1.0233579443531468e-02  -6.6601668919749942e-03  -3.0558558724004242e-03  5.7937137745567183e-04  4.2297596585124456e-03  7.8740544399865942e-03  1.1498253589778054e-02  1.5099813375379164e-02  1.8683959503319345e-02  2.2259069455632389e-02  2.5833801152002879e-02  2.9415863386791381e-02  3.3011722937073766e-02  3.6626715109127080e-02  4.0265274228934340e-02  4.3931165792924221e-02  4.7627691600798230e-02  5.1357890181265409e-02  5.5124859633968883e-02  5.8932223776763396e-02  6.2785504767207054e-02  6.6692638691026707e-02  7.0667113291777744e-02  7.4732653164135118e-02  7.8855674164464970e-02  8.3122415503113403e-02  8.8579808679550190e-02  8.9353739243041880e-02  -8.8691942775694282e-02  -8.7902812160850732e-02  -8.2415225095491762e-02  -7.8119207425426079e-02  -7.3966626033268770e-02  -6.9868153886496670e-02  -6.5857939953039221e-02  -6.1912040824231997e-02  -5.8016931338863320e-02  -5.4164713260980421e-02  -5.0350036962372405e-02  -4.6569616421659028e-02  -4.2820916752959709e-02  -3.9101777317072470e-02  -3.5410213420736518e-02  -3.1744377341666997e-02  -2.8102537691168248e-02  -2.4482974990801602e-02  -2.0883640318456860e-02  -1.7301349032365382e-02  -1.3729632096074255e-02  -1.0155368115500499e-02  -6.5568309072102995e-03  -2.9101786083939795e-03  7.8330138672528724e-04  4.4903147279901591e-03  8.1720705153908446e-03  1.1810481871933147e-02  1.5410124458482461e-02  1.8984758214109908e-02  2.2548669605374900e-02  2.6113647429157349e-02  2.9688666372056510e-02  3.3280437375718640e-02  3.6894057277385067e-02  4.0533533363608841e-02  4.4202159476865559e-02  4.7902783562438239e-02  5.1638029774513504e-02  5.5410624958474576e-02  5.9223862542471806e-02  6.3082973909658002e-02  6.6995639673518292e-02  7.0975130672960171e-02  7.5044978742586310e-02  7.9171258653545629e-02  8.3440284735807044e-02  8.8898448495196375e-02  8.9671574978925347e-02  -8.8901108556887404e-02  -8.8110920947264665e-02  -8.2619099734672324e-02  -7.8317854839216744e-02  -7.4158824713900118e-02  -7.0052400870807191e-02  -6.6032973110249069e-02  -6.2076619133162377e-02  -5.8169827354958396e-02  -5.4304700203866178e-02  -5.0475868347513539e-02  -4.6680001590526321e-02  -4.2914489050589873e-02  -3.9177061095942302e-02  -3.5465599173533945e-02  -3.1778126271573982e-02  -2.8112858321168249e-02  -2.4468257404399417e-02  -2.0843023247079366e-02  -1.7235776190414224e-02  -1.3642636875390364e-02  -1.0051651589684520e-02  -6.4318611258738509e-03  -2.7323736066142182e-03  1.0412165181052687e-03  4.8178207485007297e-03  8.5285137235267608e-03  1.2157309281547036e-02  1.5729977650539573e-02  1.9275116183959346e-02  2.2813624254143339e-02  2.6359139396697380e-02  2.9920426485024888e-02  3.3503303565609627e-02  3.7111871168900246e-02  4.0749239678854798e-02  4.4417954365164852e-02  4.8120255398014199e-02  5.1858275644438852e-02  5.5634341797333682e-02  5.9451417767251359e-02  6.3314462581283856e-02  6.7230930304386718e-02  7.1213906719140699e-02  7.5286766355934884e-02  7.9415320074972900e-02  8.3685926997388291e-02  8.9144553377122612e-02  8.9917012085271059e-02  -8.9049019251798964e-02  -8.8258076341463473e-02  -8.2763187514113809e-02  -7.8458208807303517e-02  -7.4294569656733436e-02  -7.0182448629316899e-02  -6.6156399631298754e-02  -6.2192500090250999e-02  -5.8277230272265418e-02  -5.4402668900991762e-02  -5.0563398762715858e-02  -4.6756008679317958e-02  -4.2977758858348418e-02  -3.9226186417807736e-02  -3.5498895971336993e-02  -3.1793531516764617e-02  -2.8107822987582388e-02  -2.4439707855010855e-02  -2.0787628463085024e-02  -1.7151022751667525e-02  -1.3529286247976932e-02  -9.9184888590796438e-03  -6.2832751141219121e-03  -2.5099162637156587e-03  1.3775434698435772e-03  5.2373410159262754e-03  8.9527807913193872e-03  1.2527384813830761e-02  1.6038814477441449e-02  1.9533793930357285e-02  2.3035685891799506e-02  2.6555828145116131e-02  3.0100132072133096e-02  3.3672082698371263e-02  3.7274054700302192e-02  4.0907913830550660e-02  4.4575306731638800e-02  4.8277816795240965e-02  5.2017087925301707e-02  5.5795074664596142e-02  5.9614451477718856e-02  6.3479949139760850e-02  6.7398839674938565e-02  7.1384063908112236e-02  7.5458878371873775e-02  7.9588904564166021e-02  8.3860525196996716e-02  8.9319398649404663e-02  9.0091359846362351e-02  -8.9137308657760164e-02  -8.8345915177206857e-02  -8.2849137587236998e-02  -7.8541907394557270e-02  -7.4375489770869996e-02  -7.0259926594462618e-02  -6.6229871834558265e-02  -6.2261396199026833e-02  -5.8340967624368405e-02  -5.4460639876798771e-02  -5.0614950836587680e-02  -4.6800415504398021e-02  -4.3014175864254434e-02  -3.9253584727305273e-02  -3.5515962337698340e-02  -3.1798513277019463e-02  -2.8098283842334079e-02  -2.4412157558030789e-02  -2.0736995238346802e-02  -1.7070064918884530e-02  -1.3409326727679957e-02  -9.7589864100597438e-03  -6.1044046622850462e-03  -2.2347594505617444e-03  1.7792535062033463e-03  5.7346683202369768e-03  9.4190894691037197e-03  1.2870048348043225e-02  1.6288799243640458e-02  1.9724271074815787e-02  2.3189029383011806e-02  2.6685895155730551e-02  3.0215513517433526e-02  3.3778268344397865e-02  3.7374660391039448e-02  4.1005374057079255e-02  4.4671279812260573e-02  4.8373432218850723e-02  5.2113102807842940e-02  5.5891975639275532e-02  5.9712523078072489e-02  6.3579321711692671e-02  6.7499524531798943e-02  7.1485978411711407e-02  7.5561867568876104e-02  7.9692699574682585e-02  8.3964867446704436e-02  8.9423843563983849e-02  9.0195502984723300e-02  -8.9166960603005899e-02  -8.8375423695353866e-02  -8.2877945570876604e-02  -7.8569941972969098e-02  -7.4402574964278767e-02  -7.0285831287362016e-02  -6.6254409159268154e-02  -6.2284376564382966e-02  -5.8362197930809601e-02  -5.4479919098350385e-02  -5.0632062452020961e-02  -4.6815116618486863e-02  -4.3026180017872090e-02  -3.9262535631147344e-02  -3.5521392344745148e-02  -3.1799774911807827e-02  -2.8094430744403463e-02  -2.4401726449303232e-02  -2.0717552943902730e-02  -1.7037283138368674e-02  -1.3355899062349319e-02  -9.6747365806902214e-03  -6.0114906900600599e-03  -2.0116038442841893e-03  2.0178511651492638e-03  6.0149257035977495e-03  9.7794169668142753e-03  1.3061433495459636e-02  1.6400084445