<?xml version="1.0"?>
<VTKFile type="UnstructuredGrid"  version="0.1"  >
<UnstructuredGrid>
<Piece  NumberOfPoints="1617" NumberOfCells="3072">
<Points>
<DataArray  type="Float64"  NumberOfComponents="3"  format="ascii">0 0 0  0.03125 0 0  0.0625 0 0  0.09375 0 0  0.125 0 0  0.15625 0 0  0.1875 0 0  0.21875 0 0  0.25 0 0  0.28125 0 0  0.3125 0 0  0.34375 0 0  0.375 0 0  0.40625 0 0  0.4375 0 0  0.46875 0 0  0.5 0 0  0.53125 0 0  0.5625 0 0  0.59375 0 0  0.625 0 0  0.65625 0 0  0.6875 0 0  0.71875 0 0  0.75 0 0  0.78125 0 0  0.8125 0 0  0.84375 0 0  0.875 0 0  0.90625 0 0  0.9375 0 0  0.96875 0 0  1 0 0  1.03125 0 0  1.0625 0 0  1.09375 0 0  1.125 0 0  1.15625 0 0  1.1875 0 0  1.21875 0 0  1.25 0 0  1.28125 0 0  1.3125 0 0  1.34375 0 0  1.375 0 0  1.40625 0 0  1.4375 0 0  1.46875 0 0  1.5 0 0  0 0.03125 0  0.03125 0.03125 0  0.0625 0.03125 0  0.09375 0.03125 0  0.125 0.03125 0  0.15625 0.03125 0  0.1875 0.03125 0  0.21875 0.03125 0  0.25 0.03125 0  0.28125 0.03125 0  0.3125 0.03125 0  0.34375 0.03125 0  0.375 0.03125 0  0.40625 0.03125 0  0.4375 0.03125 0  0.46875 0.03125 0  0.5 0.03125 0  0.53125 0.03125 0  0.5625 0.03125 0  0.59375 0.03125 0  0.625 0.03125 0  0.65625 0.03125 0  0.6875 0.03125 0  0.71875 0.03125 0  0.75 0.03125 0  0.78125 0.03125 0  0.8125 0.03125 0  0.84375 0.03125 0  0.875 0.03125 0  0.90625 0.03125 0  0.9375 0.03125 0  0.96875 0.03125 0  1 0.03125 0  1.03125 0.03125 0  1.0625 0.03125 0  1.09375 0.03125 0  1.125 0.03125 0  1.15625 0.03125 0  1.1875 0.03125 0  1.21875 0.03125 0  1.25 0.03125 0  1.28125 0.03125 0  1.3125 0.03125 0  1.34375 0.03125 0  1.375 0.03125 0  1.40625 0.03125 0  1.4375 0.03125 0  1.46875 0.03125 0  1.5 0.03125 0  0 0.0625 0  0.03125 0.0625 0  0.0625 0.0625 0  0.09375 0.0625 0  0.125 0.0625 0  0.15625 0.0625 0  0.1875 0.0625 0  0.21875 0.0625 0  0.25 0.0625 0  0.28125 0.0625 0  0.3125 0.0625 0  0.34375 0.0625 0  0.375 0.0625 0  0.40625 0.0625 0  0.4375 0.0625 0  0.46875 0.0625 0  0.5 0.0625 0  0.53125 0.0625 0  0.5625 0.0625 0  0.59375 0.0625 0  0.625 0.0625 0  0.65625 0.0625 0  0.6875 0.0625 0  0.71875 0.0625 0  0.75 0.0625 0  0.78125 0.0625 0  0.8125 0.0625 0  0.84375 0.0625 0  0.875 0.0625 0  0.90625 0.0625 0  0.9375 0.0625 0  0.96875 0.0625 0  1 0.0625 0  1.03125 0.0625 0  1.0625 0.0625 0  1.09375 0.0625 0  1.125 0.0625 0  1.15625 0.0625 0  1.1875 0.0625 0  1.21875 0.0625 0  1.25 0.0625 0  1.28125 0.0625 0  1.3125 0.0625 0  1.34375 0.0625 0  1.375 0.0625 0  1.40625 0.0625 0  1.4375 0.0625 0  1.46875 0.0625 0  1.5 0.0625 0  0 0.09375 0  0.03125 0.09375 0  0.0625 0.09375 0  0.09375 0.09375 0  0.125 0.09375 0  0.15625 0.09375 0  0.1875 0.09375 0  0.21875 0.09375 0  0.25 0.09375 0  0.28125 0.09375 0  0.3125 0.09375 0  0.34375 0.09375 0  0.375 0.09375 0  0.40625 0.09375 0  0.4375 0.09375 0  0.46875 0.09375 0  0.5 0.09375 0  0.53125 0.09375 0  0.5625 0.09375 0  0.59375 0.09375 0  0.625 0.09375 0  0.65625 0.09375 0  0.6875 0.09375 0  0.71875 0.09375 0  0.75 0.09375 0  0.78125 0.09375 0  0.8125 0.09375 0  0.84375 0.09375 0  0.875 0.09375 0  0.90625 0.09375 0  0.9375 0.09375 0  0.96875 0.09375 0  1 0.09375 0  1.03125 0.09375 0  1.0625 0.09375 0  1.09375 0.09375 0  1.125 0.09375 0  1.15625 0.09375 0  1.1875 0.09375 0  1.21875 0.09375 0  1.25 0.09375 0  1.28125 0.09375 0  1.3125 0.09375 0  1.34375 0.09375 0  1.375 0.09375 0  1.40625 0.09375 0  1.4375 0.09375 0  1.46875 0.09375 0  1.5 0.09375 0  0 0.125 0  0.03125 0.125 0  0.0625 0.125 0  0.09375 0.125 0  0.125 0.125 0  0.15625 0.125 0  0.1875 0.125 0  0.21875 0.125 0  0.25 0.125 0  0.28125 0.125 0  0.3125 0.125 0  0.34375 0.125 0  0.375 0.125 0  0.40625 0.125 0  0.4375 0.125 0  0.46875 0.125 0  0.5 0.125 0  0.53125 0.125 0  0.5625 0.125 0  0.59375 0.125 0  0.625 0.125 0  0.65625 0.125 0  0.6875 0.125 0  0.71875 0.125 0  0.75 0.125 0  0.78125 0.125 0  0.8125 0.125 0  0.84375 0.125 0  0.875 0.125 0  0.90625 0.125 0  0.9375 0.125 0  0.96875 0.125 0  1 0.125 0  1.03125 0.125 0  1.0625 0.125 0  1.09375 0.125 0  1.125 0.125 0  1.15625 0.125 0  1.1875 0.125 0  1.21875 0.125 0  1.25 0.125 0  1.28125 0.125 0  1.3125 0.125 0  1.34375 0.125 0  1.375 0.125 0  1.40625 0.125 0  1.4375 0.125 0  1.46875 0.125 0  1.5 0.125 0  0 0.15625 0  0.03125 0.15625 0  0.0625 0.15625 0  0.09375 0.15625 0  0.125 0.15625 0  0.15625 0.15625 0  0.1875 0.15625 0  0.21875 0.15625 0  0.25 0.15625 0  0.28125 0.15625 0  0.3125 0.15625 0  0.34375 0.15625 0  0.375 0.15625 0  0.40625 0.15625 0  0.4375 0.15625 0  0.46875 0.15625 0  0.5 0.15625 0  0.53125 0.15625 0  0.5625 0.15625 0  0.59375 0.15625 0  0.625 0.15625 0  0.65625 0.15625 0  0.6875 0.15625 0  0.71875 0.15625 0  0.75 0.15625 0  0.78125 0.15625 0  0.8125 0.15625 0  0.84375 0.15625 0  0.875 0.15625 0  0.90625 0.15625 0  0.9375 0.15625 0  0.96875 0.15625 0  1 0.15625 0  1.03125 0.15625 0  1.0625 0.15625 0  1.09375 0.15625 0  1.125 0.15625 0  1.15625 0.15625 0  1.1875 0.15625 0  1.21875 0.15625 0  1.25 0.15625 0  1.28125 0.15625 0  1.3125 0.15625 0  1.34375 0.15625 0  1.375 0.15625 0  1.40625 0.15625 0  1.4375 0.15625 0  1.46875 0.15625 0  1.5 0.15625 0  0 0.1875 0  0.03125 0.1875 0  0.0625 0.1875 0  0.09375 0.1875 0  0.125 0.1875 0  0.15625 0.1875 0  0.1875 0.1875 0  0.21875 0.1875 0  0.25 0.1875 0  0.28125 0.1875 0  0.3125 0.1875 0  0.34375 0.1875 0  0.375 0.1875 0  0.40625 0.1875 0  0.4375 0.1875 0  0.46875 0.1875 0  0.5 0.1875 0  0.53125 0.1875 0  0.5625 0.1875 0  0.59375 0.1875 0  0.625 0.1875 0  0.65625 0.1875 0  0.6875 0.1875 0  0.71875 0.1875 0  0.75 0.1875 0  0.78125 0.1875 0  0.8125 0.1875 0  0.84375 0.1875 0  0.875 0.1875 0  0.90625 0.1875 0  0.9375 0.1875 0  0.96875 0.1875 0  1 0.1875 0  1.03125 0.1875 0  1.0625 0.1875 0  1.09375 0.1875 0  1.125 0.1875 0  1.15625 0.1875 0  1.1875 0.1875 0  1.21875 0.1875 0  1.25 0.1875 0  1.28125 0.1875 0  1.3125 0.1875 0  1.34375 0.1875 0  1.375 0.1875 0  1.40625 0.1875 0  1.4375 0.1875 0  1.46875 0.1875 0  1.5 0.1875 0  0 0.21875 0  0.03125 0.21875 0  0.0625 0.21875 0  0.09375 0.21875 0  0.125 0.21875 0  0.15625 0.21875 0  0.1875 0.21875 0  0.21875 0.21875 0  0.25 0.21875 0  0.28125 0.21875 0  0.3125 0.21875 0  0.34375 0.21875 0  0.375 0.21875 0  0.40625 0.21875 0  0.4375 0.21875 0  0.46875 0.21875 0  0.5 0.21875 0  0.53125 0.21875 0  0.5625 0.21875 0  0.59375 0.21875 0  0.625 0.21875 0  0.65625 0.21875 0  0.6875 0.21875 0  0.71875 0.21875 0  0.75 0.21875 0  0.78125 0.21875 0  0.8125 0.21875 0  0.84375 0.21875 0  0.875 0.21875 0  0.90625 0.21875 0  0.9375 0.21875 0  0.96875 0.21875 0  1 0.21875 0  1.03125 0.21875 0  1.0625 0.21875 0  1.09375 0.21875 0  1.125 0.21875 0  1.15625 0.21875 0  1.1875 0.21875 0  1.21875 0.21875 0  1.25 0.21875 0  1.28125 0.21875 0  1.3125 0.21875 0  1.34375 0.21875 0  1.375 0.21875 0  1.40625 0.21875 0  1.4375 0.21875 0  1.46875 0.21875 0  1.5 0.21875 0  0 0.25 0  0.03125 0.25 0  0.0625 0.25 0  0.09375 0.25 0  0.125 0.25 0  0.15625 0.25 0  0.1875 0.25 0  0.21875 0.25 0  0.25 0.25 0  0.28125 0.25 0  0.3125 0.25 0  0.34375 0.25 0  0.375 0.25 0  0.40625 0.25 0  0.4375 0.25 0  0.46875 0.25 0  0.5 0.25 0  0.53125 0.25 0  0.5625 0.25 0  0.59375 0.25 0  0.625 0.25 0  0.65625 0.25 0  0.6875 0.25 0  0.71875 0.25 0  0.75 0.25 0  0.78125 0.25 0  0.8125 0.25 0  0.84375 0.25 0  0.875 0.25 0  0.90625 0.25 0  0.9375 0.25 0  0.96875 0.25 0  1 0.25 0  1.03125 0.25 0  1.0625 0.25 0  1.09375 0.25 0  1.125 0.25 0  1.15625 0.25 0  1.1875 0.25 0  1.21875 0.25 0  1.25 0.25 0  1.28125 0.25 0  1.3125 0.25 0  1.34375 0.25 0  1.375 0.25 0  1.40625 0.25 0  1.4375 0.25 0  1.46875 0.25 0  1.5 0.25 0  0 0.28125 0  0.03125 0.28125 0  0.0625 0.28125 0  0.09375 0.28125 0  0.125 0.28125 0  0.15625 0.28125 0  0.1875 0.28125 0  0.21875 0.28125 0  0.25 0.28125 0  0.28125 0.28125 0  0.3125 0.28125 0  0.34375 0.28125 0  0.375 0.28125 0  0.40625 0.28125 0  0.4375 0.28125 0  0.46875 0.28125 0  0.5 0.28125 0  0.53125 0.28125 0  0.5625 0.28125 0  0.59375 0.28125 0  0.625 0.28125 0  0.65625 0.28125 0  0.6875 0.28125 0  0.71875 0.28125 0  0.75 0.28125 0  0.78125 0.28125 0  0.8125 0.28125 0  0.84375 0.28125 0  0.875 0.28125 0  0.90625 0.28125 0  0.9375 0.28125 0  0.96875 0.28125 0  1 0.28125 0  1.03125 0.28125 0  1.0625 0.28125 0  1.09375 0.28125 0  1.125 0.28125 0  1.15625 0.28125 0  1.1875 0.28125 0  1.21875 0.28125 0  1.25 0.28125 0  1.28125 0.28125 0  1.3125 0.28125 0  1.34375 0.28125 0  1.375 0.28125 0  1.40625 0.28125 0  1.4375 0.28125 0  1.46875 0.28125 0  1.5 0.28125 0  0 0.3125 0  0.03125 0.3125 0  0.0625 0.3125 0  0.09375 0.3125 0  0.125 0.3125 0  0.15625 0.3125 0  0.1875 0.3125 0  0.21875 0.3125 0  0.25 0.3125 0  0.28125 0.3125 0  0.3125 0.3125 0  0.34375 0.3125 0  0.375 0.3125 0  0.40625 0.3125 0  0.4375 0.3125 0  0.46875 0.3125 0  0.5 0.3125 0  0.53125 0.3125 0  0.5625 0.3125 0  0.59375 0.3125 0  0.625 0.3125 0  0.65625 0.3125 0  0.6875 0.3125 0  0.71875 0.3125 0  0.75 0.3125 0  0.78125 0.3125 0  0.8125 0.3125 0  0.84375 0.3125 0  0.875 0.3125 0  0.90625 0.3125 0  0.9375 0.3125 0  0.96875 0.3125 0  1 0.3125 0  1.03125 0.3125 0  1.0625 0.3125 0  1.09375 0.3125 0  1.125 0.3125 0  1.15625 0.3125 0  1.1875 0.3125 0  1.21875 0.3125 0  1.25 0.3125 0  1.28125 0.3125 0  1.3125 0.3125 0  1.34375 0.3125 0  1.375 0.3125 0  1.40625 0.3125 0  1.4375 0.3125 0  1.46875 0.3125 0  1.5 0.3125 0  0 0.34375 0  0.03125 0.34375 0  0.0625 0.34375 0  0.09375 0.34375 0  0.125 0.34375 0  0.15625 0.34375 0  0.1875 0.34375 0  0.21875 0.34375 0  0.25 0.34375 0  0.28125 0.34375 0  0.3125 0.34375 0  0.34375 0.34375 0  0.375 0.34375 0  0.40625 0.34375 0  0.4375 0.34375 0  0.46875 0.34375 0  0.5 0.34375 0  0.53125 0.34375 0  0.5625 0.34375 0  0.59375 0.34375 0  0.625 0.34375 0  0.65625 0.34375 0  0.6875 0.34375 0  0.71875 0.34375 0  0.75 0.34375 0  0.78125 0.34375 0  0.8125 0.34375 0  0.84375 0.34375 0  0.875 0.34375 0  0.90625 0.34375 0  0.9375 0.34375 0  0.96875 0.34375 0  1 0.34375 0  1.03125 0.34375 0  1.0625 0.34375 0  1.09375 0.34375 0  1.125 0.34375 0  1.15625 0.34375 0  1.1875 0.34375 0  1.21875 0.34375 0  1.25 0.34375 0  1.28125 0.34375 0  1.3125 0.34375 0  1.34375 0.34375 0  1.375 0.34375 0  1
[...]
<PointData  Scalars="f_49"> 
<DataArray  type="Float64"  Name="f_49"  format="ascii">-1.4427910995256435e-01  -1.3977064203405778e-01  -1.3302460845506348e-01  -1.2637138528702446e-01  -1.2003880411520641e-01  -1.1385887505316050e-01  -1.0776168073066583e-01  -1.0171201838110118e-01  -9.5694687005079382e-02  -8.9704238265475189e-02  -8.3738391211005722e-02  -7.7795430680402428e-02  -7.1873408970146102e-02  -6.5969965972407799e-02  -6.0082321753477760e-02  -5.4207311214254372e-02  -4.8341435950652802e-02  -4.2480937154758418e-02  -3.6621897427029836e-02  -3.0760375760283731e-02  -2.4892573185545434e-02  -1.9015018099819588e-02  -1.3124751722339654e-02  -7.2194878472181057e-03  -1.2977197845404744e-03  4.6412470454123772e-03  1.0597346273490396e-02  1.6569879171098228e-02  2.2557699690595751e-02  2.8559425831579860e-02  3.4573645743205782e-02  4.0599092430594570e-02  4.6634770472416022e-02  5.2680028206755464e-02  5.8734577104573353e-02  6.4798463780599933e-02  7.0872003826880026e-02  7.6955675967462625e-02  8.3050003006188020e-02  8.9155368134900867e-02  9.5271975167989784e-02  1.0139983416879911e-01  1.0754015633705695e-01  1.1371073478208259e-01  1.1992734638016957e-01  1.2627441834927622e-01  1.3345552166027883e-01  1.4069701349205987e-01  1.4387248551771739e-01  -1.4538195540352800e-01  -1.4130806300937690e-01  -1.3431054334187129e-01  -1.2743856189031949e-01  -1.2101385125282382e-01  -1.1476690412585194e-01  -1.0860771207181114e-01  -1.0249970764525224e-01  -9.6425290925216511e-02  -9.0378006038272576e-02  -8.4355193716550550e-02  -7.8354984888494114e-02  -7.2375380364706365e-02  -6.6414028901122302e-02  -6.0468198645914788e-02  -5.4534799320100850e-02  -4.8610425788452712e-02  -4.2691425084718571e-02  -3.6773993957982018e-02  -3.0854310984301206e-02  -2.4928700723164617e-02  -1.8993818700339404e-02  -1.3046836831742329e-02  -7.0856019678890644e-03  -1.1087387337003498e-03  4.8843259418953457e-03  1.0893425539058104e-02  1.6917795270977892e-02  2.2956267617123650e-02  2.9007488801612590e-02  3.5070123081158526e-02  4.1143019276648145e-02  4.7225325227590771e-02  5.3316546706447199e-02  5.9416555483266228e-02  6.5525554731132155e-02  7.1644012986030445e-02  7.7772571248254527e-02  8.3911952821114216e-02  9.0062869229358383e-02  9.6226161904891597e-02  1.0240331355464591e-01  1.0859942037087675e-01  1.1483495720018905e-01  1.2114784703125056e-01  1.2761554557808330e-01  1.3476532067020647e-01  1.4192651348460159e-01  1.4596766951637519e-01  -1.4621649868681233e-01  -1.4211864664839138e-01  -1.3502872743407587e-01  -1.2800296544248649e-01  -1.2152425765244500e-01  -1.1523413258890736e-01  -1.0903159543093552e-01  -1.0288453669408029e-01  -9.6773077202030044e-02  -9.0689697606834901e-02  -8.4631279179074634e-02  -7.8595684455827708e-02  -7.2580775247645529e-02  -6.6584155479942994e-02  -6.0603108588090288e-02  -5.4634590250828841e-02  -4.8675248446887455e-02  -4.2721472817432271e-02  -3.6769481120063820e-02  -3.0815448585808283e-02  -2.4855679485896155e-02  -1.8886809928365115e-02  -1.2906018486220449e-02  -6.9112104218204970e-03  -9.0113721019586689e-04  5.1245797327788200e-03  1.1165533262996753e-02  1.7220709582819863e-02  2.3288727122555447e-02  2.9368089747039222e-02  3.5457412387334686e-02  4.1555590916322570e-02  4.7661905096505711e-02  5.3776057720694180e-02  5.9898162046462117e-02  6.6028692442607534e-02  7.2168415095334365e-02  7.8318309706273126e-02  8.4479520378428125e-02  9.0653344807246655e-02  9.6841536572081152e-02  1.0304706594837447e-01  1.0927754335471589e-01  1.1555666756080904e-01  1.2192237444932770e-01  1.2846007549623756e-01  1.3563581568070951e-01  1.4279121320329477e-01  1.4688165573840284e-01  -1.4689553251833937e-01  -1.4280742385692707e-01  -1.3571968948846003e-01  -1.2860298990094968e-01  -1.2208138269113171e-01  -1.1574370173798842e-01  -1.0949459325029348e-01  -1.0330563137746458e-01  -9.7154140631946079e-02  -9.1031869388587441e-02  -8.4935345132914356e-02  -7.8862157881641290e-02  -7.2810026153797849e-02  -6.6776509386018784e-02  -6.0758903236550352e-02  -5.4754193764548556e-02  -4.8759045216985528e-02  -4.2769823477762516e-02  -3.6782665814849208e-02  -3.0793607734976899e-02  -2.4798771462222331e-02  -1.8794607196126811e-02  -1.2778159100742299e-02  -6.7473083374150356e-03  -7.0093476676275979e-04  5.3610528730818948e-03  1.1437838541544884e-02  1.7527950333429621e-02  2.3629584341268235e-02  2.9740930239433926e-02  3.5860439546905203e-02  4.1987004220579910e-02  4.8120041250517026e-02  5.4259498694671442e-02  6.0405807791917274e-02  6.6559805809808387e-02  7.2722653011063926e-02  7.8895758436585806e-02  8.5080756439030986e-02  9.1279542596357580e-02  9.7494644511729428e-02  1.0373003699742550e-01  1.0999450120674692e-01  1.1631265799641638e-01  1.2272064033557908e-01  1.2929666072809501e-01  1.3649536630489914e-01  1.4364127194386769e-01  1.4775001618628358e-01  -1.4746460533353181e-01  -1.4337990714553694e-01  -1.3628169726076983e-01  -1.2911937073603624e-01  -1.2256561166679419e-01  -1.1618542584449917e-01  -1.0989629424480343e-01  -1.0366974231362486e-01  -9.7481497910564069e-02  -9.1323345758244093e-02  -8.5191622325235625e-02  -7.9083726476215102e-02  -7.2997312629680650e-02  -6.6929957215412519e-02  -6.0879010593971904e-02  -5.4841511844005320e-02  -4.8814139609852411e-02  -4.2793201440775079e-02  -3.6774678366324184e-02  -3.0754345451853633e-02  -2.4727984221675881e-02  -1.8691685273524317e-02  -1.2642208523205781e-02  -6.5773315156691927e-03  -4.9609019963895958e-04  5.6011758610397784e-03  1.1713010581411817e-02  1.7837220699818992e-02  2.3971345182288276e-02  3.0113096862510125e-02  3.6260689757946982e-02  4.2413018287553915e-02  4.8569701023983752e-02  5.4731027312583565e-02  6.0897850843324330e-02  6.7071466950149025e-02  7.3253502109360921e-02  7.9445830260061689e-02  8.5650554149465777e-02  9.1870052647558542e-02  9.8107351834971074e-02  1.0436689765535219e-01  1.1065776737837077e-01  1.1700419083784637e-01  1.2344070453938186e-01  1.3004056928718352e-01  1.3725163746448807e-01  1.4438953682677394e-01  1.4848757900925508e-01  -1.4794799234488196e-01  -1.4386364647870944e-01  -1.3675647627792711e-01  -1.2956919849406776e-01  -1.2298844474466390e-01  -1.1657362088650353e-01  -1.1025121013615428e-01  -1.0399108595767791e-01  -9.7769268286300323e-02  -9.1577930972456575e-02  -8.5413336269834231e-02  -7.9272854161874434e-02  -7.3154207420187078e-02  -6.7055082933320978e-02  -6.0972956695938392e-02  -5.4904974203976761e-02  -4.8847859482417461e-02  -4.2797858055394052e-02  -3.6750740377408150e-02  -3.0701903027024635e-02  -2.4646605617062011e-02  -1.8580360163749383e-02  -1.2499441040756658e-02  -6.4014135150051747e-03  -2.8551737373267572e-04  5.8472577938989499e-03  1.1994476486743292e-02  1.8152861645636714e-02  2.4319006473900548e-02  3.0489989175769901e-02  3.6663765044387175e-02  4.2839314479205595e-02  4.9016599357126121e-02  5.5196407152186926e-02  6.1380154877595294e-02  6.7569702163597797e-02  7.3767202962250450e-02  7.9975004776131897e-02  8.6195624768495321e-02  9.2431791158437526e-02  9.8686794495175534e-02  1.0496519776543015e-01  1.1127595621376676e-01  1.1764263758955752e-01  1.2409842717746965e-01  1.3071389253523749e-01  1.3793356373152552e-01  1.4506674780352538e-01  1.4915797815545337e-01  -1.4836253257302046e-01  -1.4427737476356040e-01  -1.3716126835436757e-01  -1.2995436207904920e-01  -1.2335024391110966e-01  -1.1690783030020298e-01  -1.1055721546532403e-01  -1.0426736802544674e-01  -9.8015377087536631e-02  -9.1793673226677294e-02  -8.5598589230776095e-02  -7.9427642132332318e-02  -7.3278741088441665e-02  -6.7149774556452616e-02  -6.1038429046970578e-02  -5.4942036865288903e-02  -4.8857435348463596e-02  -4.2780844808747449e-02  -3.6707802617228995e-02  -3.0633214792953899e-02  -2.4551602422523359e-02  -1.8457601051048843e-02  -1.2346701041098019e-02  -6.2160845529328672e-03  -6.5271064400504073e-05  6.1037475382673661e-03  1.2287026950906247e-02  1.8479680450746907e-02  2.4676994758991329e-02  3.0875287655413433e-02  3.7072338924619502e-02  4.3267428235143339e-02  4.9461119228527632e-02  5.5654937866555232e-02  6.1851051686840658e-02  6.8052006063498358e-02  7.4260538496900230e-02  8.0479465897987101e-02  8.6711660297973420e-02  9.2960088049812151e-02  9.9228146979179935e-02  1.0552033832684159e-01  1.1184534752052373e-01  1.1822614429413590e-01  1.2469502867855829e-01  1.3132111137214975e-01  1.3854762973815893e-01  1.4567928546414258e-01  1.4976533270703732e-01  -1.4871724222986624e-01  -1.4463064738295248e-01  -1.3750560811847165e-01  -1.3028166147468123e-01  -1.2365778987156383e-01  -1.1719265096363134e-01  -1.1081756544814068e-01  -1.0450149904184362e-01  -9.8222398822218185e-02  -9.1972847281062919e-02  -8.5749411767332639e-02  -7.9549861882693709e-02  -7.3372364441538204e-02  -6.7215086016958858e-02  -6.1076013794020702e-02  -5.4952770846314260e-02  -4.8842418459830540e-02  -4.2741245019449405e-02  -3.6644586555481320e-02  -3.0546769906941069e-02  -2.4441319795448554e-02  -1.8321573206340487e-02  -1.2181764386187160e-02  -6.0183969457186853e-03  1.6861340041179364e-04  6.3756794223918780e-03  1.2596482005134815e-02  1.8823739085836389e-02  2.5050998721367505e-02  3.1273801565077995e-02  3.7490040490313070e-02  4.3699719417166515e-02  4.9904424882730669e-02  5.6106758632375478e-02  6.2309865425910209e-02  6.8517098383365532e-02  7.4731815676948116e-02  8.0957277879904962e-02  8.7196642462279914e-02  9.3453017572727115e-02  9.9729803239716891e-02  1.0603135290865928e-01  1.1236605742049036e-01  1.1875640866238328e-01  1.2523414915464381e-01  1.3186758060547091e-01  1.3909947396390193e-01  1.4623093043999291e-01  1.5031312519656814e-01  -1.4901835001120128e-01  -1.4493003411452168e-01  -1.3779639594229851e-01  -1.3055744809883343e-01  -1.2391669301582872e-01  -1.1743212901200670e-01  -1.1103562986035249e-01  -1.0469637475126431e-01  -9.8392792801492671e-02  -9.2117639949895927e-02  -8.5867781727865231e-02  -7.9641255549972256e-02  -7.3436514575195122e-02  -6.7252056305120406e-02  -6.1086249575483684e-02  -5.4937125970651972e-02  -4.8802126570704603e-02  -4.2677777462534781e-02  -3.6559338272273131e-02  -3.0440535530357676e-02  -2.4313613919687393e-02  -1.8170008925762166e-02  -1.2001921603791332e-02  -5.8046302558019212e-03  4.2137849986170262e-04  6.6698730443021190e-03  1.2930680249885177e-02  1.9192938349501962e-02  2.5448020111442812e-02  3.1690967702754223e-02  3.7920465515185652e-02  4.4137993594835313e-02  5.0346784438515077e-02  5.6550937349823437e-02  6.2754804594353009e-02  6.8962630217361043e-02  7.5178378251932285e-02  8.1405680961925728e-02  8.7647882181809120e-02  9.3908127889034868e-02  1.0018973027879956e-01  1.0649683993707590e-01  1.1283755350114934e-01  1.1923397854022084e-01  1.2571748413970876e-01  1.3235588068284160e-01  1.3959173244148365e-01  1.4672321985933559e-01  1.5080218716700736e-01  -1.4927110744701427e-01  -1.4518100637656792e-01  -1.3803944197626250e-01  -1.3078736483153339e-01  -1.2413202795244321e-01  -1.1763060600088936e-01  -1.1121530745355034e-01  -1.0485543473197578e-01  -9.8529683163725595e-02  -9.2230989398296798e-02  -8.5956471945047311e-02  -7.9704397598105603e-02  -7.3473492636964052e-02  -6.7262595223153199e-02  -6.1070503560660447e-02  -5.4895766674769121e-02  -4.8736394991706920e-02  -4.2589411406856896e-02  -3.6450273144916098e-02  -3.0312240314781084e-02  -2.4166037990994794e-02  -1.8000364422457865e-02  -1.1804079943215742e-02  -5.5701601040319222e-03  7.0009216987561209e-04  6.9958373726884794e-03  1.3300412990591329e-02  1.9597627417777378e-02  2.5876500221592325e-02  3.2132555595634903e-02  3.8366637566028164e-02  4.4582903059931511e-02  5.0787044253268535e-02  5.6985090331432738e-02  6.3182749985610603e-02  6.9385131813940737e-02  7.5596688947787580e-02  8.1821274582962622e-02  8.8062267983444492e-02  9.4322721584792532e-02  1.0060576037071788e-01  1.0691527504266268e-01  1.1325905812450303e-01  1.1965888175852614e-01  1.2614582721393819e-01  1.3278736281654960e-01  1.4002590305404525e-01  1.4715723973519601e-01  1.5123337456698491e-01  -1.4948023082322234e-01  -1.4538841279277634e-01  -1.3823976224770010e-01  -1.3097629742963446e-01  -1.2430836538312957e-01  -1.1779230220701117e-01  -1.1136052488551818e-01  -1.0498234710006064e-01  -9.8636611627312215e-02  -9.2316377740149405e-02  -8.6018921957791983e-02  -7.9742666044993998e-02  -7.3486541172702979e-02  -6.7249670167580822e-02  -6.1031261094300369e-02  -5.4830435667438192e-02  -4.8645950593492235e-02  -4.2475654681271659e-02  -3.6315680414664459e-02  -3.0159253691540783e-02  -2.3995582859192632e-02  -1.7809583383207216e-02  -1.1584573575541006e-02  -5.3089495250585603e-03  1.0148739877976869e-03  7.3675128571914286e-03  1.3720937144787742e-02  2.0051254658976624e-02  2.6346008828668971e-02  3.2603694043196643e-02  3.8829766472819043e-02  4.5032736248129687e-02  5.1221606854924669e-02  5.7404594446521538e-02  6.3588681556596693e-02  6.9779606542838019e-02  7.5982036931590544e-02  8.2199789558431047e-02  8.8436063612537794e-02  9.4693651973170673e-02  1.0097537639969377e-01  1.0728480029646383e-01  1.1362938686530580e-01  1.2003058863952884e-01  1.2651923003630161e-01  1.3316250654819847e-01  1.4040267330227449e-01  1.4753359381836384e-01  1.5160721000454094e-01  -1.4964990383140889e-01  -1.4555651805616560e-01  -1.3840170808378338e-01  -1.3112852673862610e-01  -1.2444984728899236e-01  -1.1792121424631438e-01  -1.1147516338925317e-01  -1.0508094225805249e-01  -9.8717450405620424e-02  -9.2377780683298216e-02  -8.6059259236095142e-02  -7.9760353342098786e-02  -7.3480071298458488e-02  -6.7217682923330468e-02  -6.0972679042109061e-02  -5.4744683003896441e-02  -4.8533256888483985e-02  -4.2337374540578447e-02  -3.6154502337222470e-02  -2.9978729345744137e-02  -2.3798437064113418e-02  -1.7593825513114180e-02  -1.1339108711367830e-02  -5.0128843388105009e-03  1.3810250907202377e-03  7.8061584479821172e-03  1.4213923073059050e-02  2.0570399143434084e-02  2.6865692812352304e-02  3.3106617237961732e-02  3.9307026624480192e-02  4.5481609056992556e-02  5.1643132370857200e-02  5.7801742944863697e-02  6.3965179069679315e-02  7.0139266160491168e-02  7.6328417902131851e-02  8.2536047780031277e-02  8.8764904472750442e-02  9.5017332662509460e-02  1.0129572843766263e-01  1.0760325861874662e-01  1.1394702684041196e-01  1.2034816688180383e-01  1.2683725425992964e-01  1.3348124709373421e-01  1.4072221695439691e-01  1.4785250061507793e-01  1.5192390313699389e-01  -1.4978375072838299e-01  -1.4568900331621151e-01  -1.3852902332469860e-01  -1.3124778240540527e-01  -1.2456017449282375e-01  -1.1802103182530117e-01  -1.1156294646264228e-01  -1.0515505206123324e-01  -9.8776230975489501e-02  -9.2419524151359400e-02  -8.6082201017947640e-02  -7.9762644116311746e-02  -7.3459768553361726e-02  -6.7172775335116841e-02  -6.0901177331553452e-02  -5.4644820647509043e-02  -4.8403849155489613e-02  -4.2178381453896831e-02  -3.5967775728537127e-02  -2.9768355573802800e-02  -2.3569784527362955e-02  -1.7347979869026031e-02  -1.1062955359125994e-02  -4.6705945787085005e-03  1.8230227769936377e-03  8.3448256913522811e-03  1.4808950552450748e-02  2.1172374781144043e-02  2.7439824126669326e-02  3.3636136125184860e-02  3.9787979433226150e-02  4.5917052587993536e-02  5.2039108088038237e-02  5.8165008462090967e-02  6.4302120389177500e-02  7.0455475169652934e-02  7.6628600654721601e-02  8.2824076680849526e-02  8.9043919821115911e-02  9.5289850181898450e-02  1.0156373519890587e-01  1.0786829349291560e-01  1.1421025071646228e-01  1.2061042591856583e-01  1.2709915200110469e-01  1.3374317546768877e-01  1.4098436820226989e-01  1.4811389627885480e-01  1.5218341402788360e-01  -1.4988480822657449e-01  -1.4578895134942782e-01  -1.3862485138122638e-01  -1.3133723596463642e-01  -1.2464255761217825e-01  -1.1809504103100196e-01  -1.1162729541853131e-01  -1.0520831961959921e-01  -9.8816929595159531e-02  -9.2446053683582635e-02  -8.6092820898353586e-02  -7.9755413248101606e-02  -7.3432484166703962e-02  -6.7122918642644219e-02  -6.0825891809061054e-02  -5.4540969033178184e-02  -4.8268231255514493e-02  -4.2008294157484444e-02  -3.5762133829179754e-02  -2.9529421866609423e-02  -2.3304881708177370e-02  -1.7065187198315422e-02  -1.0751544563457043e-02  -4.2647273033056179e-03  2.3807051482646010e-03  9.0322318435783425e-03  1.5540204762282631e-02  2.1865728892877870e-02  2.8057573797028997e-02  3.4171817062018654e-02  4.0249711198655176e-02  4.6317478525006936e-02  5.2390803023950383e-02  5.8478825469986763e-02  6.4586864622429283e-02  7.0718089832595116e-02  7.6874494989537731e-02  8.3057447907339821e-02  8.9268021787979338e-02  9.5507202754316192e-02  1.0177628209365941e-01  1.0807752056753354e-01  1.1441727707596773e-01  1.2081607833372109e-01  1.2730403322798184e-01  1.3394770603548564e-01  1.4118877062787621e-01  1.4831754444918788e-01  1.5238554506844468e-01  -1.4995549353448023e-01  -1.4585881784887222e-01  -1.3869170737225919e-01  -1.3139945339231293e-01  -1.2469963583427471e-01  -1.1814599993392903e-01  -1.1167115429007179e-01  -1.0524396976521151e-01  -9.8843179636005807e-02  -9.2461579580384437e-02  -8.6096124041688760e-02  -7.9744739868186379e-02  -7.3405723251242908e-02  -6.7077471185392215e-02  -6.0758511640435657e-02  -5.4447583059462033e-02  -4.8143779368890902e-02  -4.1846746573228649e-02  -3.5557022765886029e-02  -2.9275936173766011e-02  -2.3005207151854109e-02  -1.6735845464500288e-02  -1.0398530529330482e-02  -3.7670710434151481e-03  3.1055783879805612e-03  9.9191958546367490e-03  1.6425248405111677e-02  2.2624762722032472e-02  2.8673970398824106e-02  3.4667337068206655e-02  4.0652208909553407e-02  4.6650932482296625e-02  5.2673592679663581e-02  5.8724486228828213e-02  6.4805241744046435e-02  7.0916347493717044e-02  7.7057883600976138e-02  8.3229853694328476e-02  8.9432349776823572e-02  9.5665641438169136e-02  1.0193048652874599e-01  1.0822874095682855e-01  1.1456645100612968e-01  1.2096390163629016e-01  1.2745101619390312e-01  1.3409421654394252e-01  1.4133500071740582e-01  1.4846313569849903e-01  1.5253002723915465e-01  -1.4999757013986695e-01  -1.4590039621116641e-01  -1.3873143574289684e-01  -1.3143633232168531e-01  -1.2473338381155874e-01  -1.1817600414901196e-01  -1.1169680217797860e-01  -1.0526455408714817e-01  -9.8857929159490307e-02  -9.2469618662595787e-02  -8.6096435989834019e-02  -7.9736096012171562e-02  -7.3386584727430162e-02  -6.7045846137319245e-02  -6.0711745135341770e-02  -5.4382039078662243e-02  -4.8054351234069051e-02  -4.1726103456774535e-02  -3.5394478799537679e-02  -2.9056488142492808e-02  -2.2711559386534953e-02  -1.6367777884481162e-02  -9.9918559715068272e-03  -3.1667300912348283e-03  3.9610848431104887e-03  1.0964192728175417e-02  1.7400289026985042e-02  2.3338895793818464e-02  2.9184750064176236e-02  3.5042556831324539e-02  4.0938485442929252e-02  4.6877856321841951e-02  5.2860039728261435e-02  5.8882763177711336e-02  6.4943571132143441e-02  7.1040351396231965e-02  7.7171492463088853e-02  8.3335873526089080e-02  8.9532821005891744e-02  9.5762069681133391e-02  1.0202399373740303e-01  1.0832016731925481e-01  1.1465642447140555e-01  1.2105288924331581e-01  1.2753935889895232e-01  1.3418216491765092e-01  1.4142266989896013e-01  1.4855037350291941e-01  1.5261659811853179e-01  -1.5001211704496856e-01  -1.4591478439088440e-01  -1.3874516819958901e-01  -1.3144904188440301e-01  -1.2474502566955582e-01  -1.1818636431171972e-01  -1.1170568063094287e-01  -1.0527170900041680e-01  -9.8863100574018134e-02  -9.2472510395103069e-02  -8.6096704260132481e-02  -7.9733321782381725e-02  -7.3380236021408612e-02  -6.7035220832604839e-02  -6.0695881680924539e-02  -5.4359569050685709e-02  -4.8023243030616114e-02  -4.1683183213757011e-02  -3.5334489604521228e-02  -2.8970466659367439e-02  -2.2584193129526146e-02  -1.6180304731449602e-02  -9.7848677369943380e-03  -2.7043907189758690e-03  4.4606554064202603e-03  1.1549484484200699e-02  1.8134748481806105e-02  2.3740280594987638e-02  2.9416947164