<?xml version="1.0"?>
<VTKFile type="UnstructuredGrid"  version="0.1"  >
<UnstructuredGrid>
<Piece  NumberOfPoints="1617" NumberOfCells="3072">
<Points>
<DataArray  type="Float64"  NumberOfComponents="3"  format="ascii">0 0 0  0.03125 0 0  0.0625 0 0  0.09375 0 0  0.125 0 0  0.15625 0 0  0.1875 0 0  0.21875 0 0  0.25 0 0  0.28125 0 0  0.3125 0 0  0.34375 0 0  0.375 0 0  0.40625 0 0  0.4375 0 0  0.46875 0 0  0.5 0 0  0.53125 0 0  0.5625 0 0  0.59375 0 0  0.625 0 0  0.65625 0 0  0.6875 0 0  0.71875 0 0  0.75 0 0  0.78125 0 0  0.8125 0 0  0.84375 0 0  0.875 0 0  0.90625 0 0  0.9375 0 0  0.96875 0 0  1 0 0  1.03125 0 0  1.0625 0 0  1.09375 0 0  1.125 0 0  1.15625 0 0  1.1875 0 0  1.21875 0 0  1.25 0 0  1.28125 0 0  1.3125 0 0  1.34375 0 0  1.375 0 0  1.40625 0 0  1.4375 0 0  1.46875 0 0  1.5 0 0  0 0.03125 0  0.03125 0.03125 0  0.0625 0.03125 0  0.09375 0.03125 0  0.125 0.03125 0  0.15625 0.03125 0  0.1875 0.03125 0  0.21875 0.03125 0  0.25 0.03125 0  0.28125 0.03125 0  0.3125 0.03125 0  0.34375 0.03125 0  0.375 0.03125 0  0.40625 0.03125 0  0.4375 0.03125 0  0.46875 0.03125 0  0.5 0.03125 0  0.53125 0.03125 0  0.5625 0.03125 0  0.59375 0.03125 0  0.625 0.03125 0  0.65625 0.03125 0  0.6875 0.03125 0  0.71875 0.03125 0  0.75 0.03125 0  0.78125 0.03125 0  0.8125 0.03125 0  0.84375 0.03125 0  0.875 0.03125 0  0.90625 0.03125 0  0.9375 0.03125 0  0.96875 0.03125 0  1 0.03125 0  1.03125 0.03125 0  1.0625 0.03125 0  1.09375 0.03125 0  1.125 0.03125 0  1.15625 0.03125 0  1.1875 0.03125 0  1.21875 0.03125 0  1.25 0.03125 0  1.28125 0.03125 0  1.3125 0.03125 0  1.34375 0.03125 0  1.375 0.03125 0  1.40625 0.03125 0  1.4375 0.03125 0  1.46875 0.03125 0  1.5 0.03125 0  0 0.0625 0  0.03125 0.0625 0  0.0625 0.0625 0  0.09375 0.0625 0  0.125 0.0625 0  0.15625 0.0625 0  0.1875 0.0625 0  0.21875 0.0625 0  0.25 0.0625 0  0.28125 0.0625 0  0.3125 0.0625 0  0.34375 0.0625 0  0.375 0.0625 0  0.40625 0.0625 0  0.4375 0.0625 0  0.46875 0.0625 0  0.5 0.0625 0  0.53125 0.0625 0  0.5625 0.0625 0  0.59375 0.0625 0  0.625 0.0625 0  0.65625 0.0625 0  0.6875 0.0625 0  0.71875 0.0625 0  0.75 0.0625 0  0.78125 0.0625 0  0.8125 0.0625 0  0.84375 0.0625 0  0.875 0.0625 0  0.90625 0.0625 0  0.9375 0.0625 0  0.96875 0.0625 0  1 0.0625 0  1.03125 0.0625 0  1.0625 0.0625 0  1.09375 0.0625 0  1.125 0.0625 0  1.15625 0.0625 0  1.1875 0.0625 0  1.21875 0.0625 0  1.25 0.0625 0  1.28125 0.0625 0  1.3125 0.0625 0  1.34375 0.0625 0  1.375 0.0625 0  1.40625 0.0625 0  1.4375 0.0625 0  1.46875 0.0625 0  1.5 0.0625 0  0 0.09375 0  0.03125 0.09375 0  0.0625 0.09375 0  0.09375 0.09375 0  0.125 0.09375 0  0.15625 0.09375 0  0.1875 0.09375 0  0.21875 0.09375 0  0.25 0.09375 0  0.28125 0.09375 0  0.3125 0.09375 0  0.34375 0.09375 0  0.375 0.09375 0  0.40625 0.09375 0  0.4375 0.09375 0  0.46875 0.09375 0  0.5 0.09375 0  0.53125 0.09375 0  0.5625 0.09375 0  0.59375 0.09375 0  0.625 0.09375 0  0.65625 0.09375 0  0.6875 0.09375 0  0.71875 0.09375 0  0.75 0.09375 0  0.78125 0.09375 0  0.8125 0.09375 0  0.84375 0.09375 0  0.875 0.09375 0  0.90625 0.09375 0  0.9375 0.09375 0  0.96875 0.09375 0  1 0.09375 0  1.03125 0.09375 0  1.0625 0.09375 0  1.09375 0.09375 0  1.125 0.09375 0  1.15625 0.09375 0  1.1875 0.09375 0  1.21875 0.09375 0  1.25 0.09375 0  1.28125 0.09375 0  1.3125 0.09375 0  1.34375 0.09375 0  1.375 0.09375 0  1.40625 0.09375 0  1.4375 0.09375 0  1.46875 0.09375 0  1.5 0.09375 0  0 0.125 0  0.03125 0.125 0  0.0625 0.125 0  0.09375 0.125 0  0.125 0.125 0  0.15625 0.125 0  0.1875 0.125 0  0.21875 0.125 0  0.25 0.125 0  0.28125 0.125 0  0.3125 0.125 0  0.34375 0.125 0  0.375 0.125 0  0.40625 0.125 0  0.4375 0.125 0  0.46875 0.125 0  0.5 0.125 0  0.53125 0.125 0  0.5625 0.125 0  0.59375 0.125 0  0.625 0.125 0  0.65625 0.125 0  0.6875 0.125 0  0.71875 0.125 0  0.75 0.125 0  0.78125 0.125 0  0.8125 0.125 0  0.84375 0.125 0  0.875 0.125 0  0.90625 0.125 0  0.9375 0.125 0  0.96875 0.125 0  1 0.125 0  1.03125 0.125 0  1.0625 0.125 0  1.09375 0.125 0  1.125 0.125 0  1.15625 0.125 0  1.1875 0.125 0  1.21875 0.125 0  1.25 0.125 0  1.28125 0.125 0  1.3125 0.125 0  1.34375 0.125 0  1.375 0.125 0  1.40625 0.125 0  1.4375 0.125 0  1.46875 0.125 0  1.5 0.125 0  0 0.15625 0  0.03125 0.15625 0  0.0625 0.15625 0  0.09375 0.15625 0  0.125 0.15625 0  0.15625 0.15625 0  0.1875 0.15625 0  0.21875 0.15625 0  0.25 0.15625 0  0.28125 0.15625 0  0.3125 0.15625 0  0.34375 0.15625 0  0.375 0.15625 0  0.40625 0.15625 0  0.4375 0.15625 0  0.46875 0.15625 0  0.5 0.15625 0  0.53125 0.15625 0  0.5625 0.15625 0  0.59375 0.15625 0  0.625 0.15625 0  0.65625 0.15625 0  0.6875 0.15625 0  0.71875 0.15625 0  0.75 0.15625 0  0.78125 0.15625 0  0.8125 0.15625 0  0.84375 0.15625 0  0.875 0.15625 0  0.90625 0.15625 0  0.9375 0.15625 0  0.96875 0.15625 0  1 0.15625 0  1.03125 0.15625 0  1.0625 0.15625 0  1.09375 0.15625 0  1.125 0.15625 0  1.15625 0.15625 0  1.1875 0.15625 0  1.21875 0.15625 0  1.25 0.15625 0  1.28125 0.15625 0  1.3125 0.15625 0  1.34375 0.15625 0  1.375 0.15625 0  1.40625 0.15625 0  1.4375 0.15625 0  1.46875 0.15625 0  1.5 0.15625 0  0 0.1875 0  0.03125 0.1875 0  0.0625 0.1875 0  0.09375 0.1875 0  0.125 0.1875 0  0.15625 0.1875 0  0.1875 0.1875 0  0.21875 0.1875 0  0.25 0.1875 0  0.28125 0.1875 0  0.3125 0.1875 0  0.34375 0.1875 0  0.375 0.1875 0  0.40625 0.1875 0  0.4375 0.1875 0  0.46875 0.1875 0  0.5 0.1875 0  0.53125 0.1875 0  0.5625 0.1875 0  0.59375 0.1875 0  0.625 0.1875 0  0.65625 0.1875 0  0.6875 0.1875 0  0.71875 0.1875 0  0.75 0.1875 0  0.78125 0.1875 0  0.8125 0.1875 0  0.84375 0.1875 0  0.875 0.1875 0  0.90625 0.1875 0  0.9375 0.1875 0  0.96875 0.1875 0  1 0.1875 0  1.03125 0.1875 0  1.0625 0.1875 0  1.09375 0.1875 0  1.125 0.1875 0  1.15625 0.1875 0  1.1875 0.1875 0  1.21875 0.1875 0  1.25 0.1875 0  1.28125 0.1875 0  1.3125 0.1875 0  1.34375 0.1875 0  1.375 0.1875 0  1.40625 0.1875 0  1.4375 0.1875 0  1.46875 0.1875 0  1.5 0.1875 0  0 0.21875 0  0.03125 0.21875 0  0.0625 0.21875 0  0.09375 0.21875 0  0.125 0.21875 0  0.15625 0.21875 0  0.1875 0.21875 0  0.21875 0.21875 0  0.25 0.21875 0  0.28125 0.21875 0  0.3125 0.21875 0  0.34375 0.21875 0  0.375 0.21875 0  0.40625 0.21875 0  0.4375 0.21875 0  0.46875 0.21875 0  0.5 0.21875 0  0.53125 0.21875 0  0.5625 0.21875 0  0.59375 0.21875 0  0.625 0.21875 0  0.65625 0.21875 0  0.6875 0.21875 0  0.71875 0.21875 0  0.75 0.21875 0  0.78125 0.21875 0  0.8125 0.21875 0  0.84375 0.21875 0  0.875 0.21875 0  0.90625 0.21875 0  0.9375 0.21875 0  0.96875 0.21875 0  1 0.21875 0  1.03125 0.21875 0  1.0625 0.21875 0  1.09375 0.21875 0  1.125 0.21875 0  1.15625 0.21875 0  1.1875 0.21875 0  1.21875 0.21875 0  1.25 0.21875 0  1.28125 0.21875 0  1.3125 0.21875 0  1.34375 0.21875 0  1.375 0.21875 0  1.40625 0.21875 0  1.4375 0.21875 0  1.46875 0.21875 0  1.5 0.21875 0  0 0.25 0  0.03125 0.25 0  0.0625 0.25 0  0.09375 0.25 0  0.125 0.25 0  0.15625 0.25 0  0.1875 0.25 0  0.21875 0.25 0  0.25 0.25 0  0.28125 0.25 0  0.3125 0.25 0  0.34375 0.25 0  0.375 0.25 0  0.40625 0.25 0  0.4375 0.25 0  0.46875 0.25 0  0.5 0.25 0  0.53125 0.25 0  0.5625 0.25 0  0.59375 0.25 0  0.625 0.25 0  0.65625 0.25 0  0.6875 0.25 0  0.71875 0.25 0  0.75 0.25 0  0.78125 0.25 0  0.8125 0.25 0  0.84375 0.25 0  0.875 0.25 0  0.90625 0.25 0  0.9375 0.25 0  0.96875 0.25 0  1 0.25 0  1.03125 0.25 0  1.0625 0.25 0  1.09375 0.25 0  1.125 0.25 0  1.15625 0.25 0  1.1875 0.25 0  1.21875 0.25 0  1.25 0.25 0  1.28125 0.25 0  1.3125 0.25 0  1.34375 0.25 0  1.375 0.25 0  1.40625 0.25 0  1.4375 0.25 0  1.46875 0.25 0  1.5 0.25 0  0 0.28125 0  0.03125 0.28125 0  0.0625 0.28125 0  0.09375 0.28125 0  0.125 0.28125 0  0.15625 0.28125 0  0.1875 0.28125 0  0.21875 0.28125 0  0.25 0.28125 0  0.28125 0.28125 0  0.3125 0.28125 0  0.34375 0.28125 0  0.375 0.28125 0  0.40625 0.28125 0  0.4375 0.28125 0  0.46875 0.28125 0  0.5 0.28125 0  0.53125 0.28125 0  0.5625 0.28125 0  0.59375 0.28125 0  0.625 0.28125 0  0.65625 0.28125 0  0.6875 0.28125 0  0.71875 0.28125 0  0.75 0.28125 0  0.78125 0.28125 0  0.8125 0.28125 0  0.84375 0.28125 0  0.875 0.28125 0  0.90625 0.28125 0  0.9375 0.28125 0  0.96875 0.28125 0  1 0.28125 0  1.03125 0.28125 0  1.0625 0.28125 0  1.09375 0.28125 0  1.125 0.28125 0  1.15625 0.28125 0  1.1875 0.28125 0  1.21875 0.28125 0  1.25 0.28125 0  1.28125 0.28125 0  1.3125 0.28125 0  1.34375 0.28125 0  1.375 0.28125 0  1.40625 0.28125 0  1.4375 0.28125 0  1.46875 0.28125 0  1.5 0.28125 0  0 0.3125 0  0.03125 0.3125 0  0.0625 0.3125 0  0.09375 0.3125 0  0.125 0.3125 0  0.15625 0.3125 0  0.1875 0.3125 0  0.21875 0.3125 0  0.25 0.3125 0  0.28125 0.3125 0  0.3125 0.3125 0  0.34375 0.3125 0  0.375 0.3125 0  0.40625 0.3125 0  0.4375 0.3125 0  0.46875 0.3125 0  0.5 0.3125 0  0.53125 0.3125 0  0.5625 0.3125 0  0.59375 0.3125 0  0.625 0.3125 0  0.65625 0.3125 0  0.6875 0.3125 0  0.71875 0.3125 0  0.75 0.3125 0  0.78125 0.3125 0  0.8125 0.3125 0  0.84375 0.3125 0  0.875 0.3125 0  0.90625 0.3125 0  0.9375 0.3125 0  0.96875 0.3125 0  1 0.3125 0  1.03125 0.3125 0  1.0625 0.3125 0  1.09375 0.3125 0  1.125 0.3125 0  1.15625 0.3125 0  1.1875 0.3125 0  1.21875 0.3125 0  1.25 0.3125 0  1.28125 0.3125 0  1.3125 0.3125 0  1.34375 0.3125 0  1.375 0.3125 0  1.40625 0.3125 0  1.4375 0.3125 0  1.46875 0.3125 0  1.5 0.3125 0  0 0.34375 0  0.03125 0.34375 0  0.0625 0.34375 0  0.09375 0.34375 0  0.125 0.34375 0  0.15625 0.34375 0  0.1875 0.34375 0  0.21875 0.34375 0  0.25 0.34375 0  0.28125 0.34375 0  0.3125 0.34375 0  0.34375 0.34375 0  0.375 0.34375 0  0.40625 0.34375 0  0.4375 0.34375 0  0.46875 0.34375 0  0.5 0.34375 0  0.53125 0.34375 0  0.5625 0.34375 0  0.59375 0.34375 0  0.625 0.34375 0  0.65625 0.34375 0  0.6875 0.34375 0  0.71875 0.34375 0  0.75 0.34375 0  0.78125 0.34375 0  0.8125 0.34375 0  0.84375 0.34375 0  0.875 0.34375 0  0.90625 0.34375 0  0.9375 0.34375 0  0.96875 0.34375 0  1 0.34375 0  1.03125 0.34375 0  1.0625 0.34375 0  1.09375 0.34375 0  1.125 0.34375 0  1.15625 0.34375 0  1.1875 0.34375 0  1.21875 0.34375 0  1.25 0.34375 0  1.28125 0.34375 0  1.3125 0.34375 0  1.34375 0.34375 0  1.375 0.34375 0  1
[...]
<PointData  Scalars="f_49"> 
<DataArray  type="Float64"  Name="f_49"  format="ascii">-1.5589978572925135e-02  -1.3702924128240108e-02  -1.3646855142811134e-02  -1.3511459350538430e-02  -1.3275257046349527e-02  -1.2973462097954526e-02  -1.2621613524009496e-02  -1.2225899736064156e-02  -1.1788842491733434e-02  -1.1311395446057833e-02  -1.0794114000562519e-02  -1.0237785449088436e-02  -9.6436591968568786e-03  -9.0134526549421369e-03  -8.3492497535735191e-03  -7.6533746974006547e-03  -6.9282857456420136e-03  -6.1765057763172402e-03  -5.4005892255549939e-03  -4.6031174640586443e-03  -3.7867130082932360e-03  -2.9540638999495752e-03  -2.1079511657824523e-03  -1.2512737589689519e-03  -3.8706676096617347e-04  4.8148991640668983e-04  1.3510734518180254e-03  2.2182300870888551e-03  3.0793951288812941e-03  3.9309180771810630e-03  4.7690899739700789e-03  5.5901710711331511e-03  6.3904191155420027e-03  7.1661220267516465e-03  7.9136426872484945e-03  8.6294897315284599e-03  9.3104234595436878e-03  9.9536192746867078e-03  1.0556841983430527e-02  1.1118665471442002e-02  1.1638571938364164e-02  1.2116527413873451e-02  1.2554770894320930e-02  1.2946330653440018e-02  1.3324435869902333e-02  1.3565077582496664e-02  1.4020978089151578e-02  1.3257142667467556e-02  1.5802637826659104e-02  -1.5052966338673352e-02  -1.2357395260085106e-02  -1.2682999415858216e-02  -1.2537875004113509e-02  -1.2347469957121071e-02  -1.2089369777078961e-02  -1.1784046935837124e-02  -1.1434684101199964e-02  -1.1043098503795408e-02  -1.0610070666241945e-02  -1.0136254535162462e-02  -9.6226081377418244e-03  -9.0705613301932195e-03  -8.4819938815701192e-03  -7.8591277853948295e-03  -7.2044037479145617e-03  -6.5203810434686675e-03  -5.8096742915689954e-03  -5.0749251643194626e-03  -4.3188005037393734e-03  -3.5440072311163097e-03  -2.7533156478805015e-03  -1.9495844116722563e-03  -1.1357820010408563e-03  -3.1500090840180984e-04  5.0953765712185477e-04  1.3344890534611577e-03  2.1563992620877337e-03  2.9717251715160055e-03  3.7768579389900157e-03  4.5681466206816809e-03  5.3419205761866019e-03  6.0945114440018096e-03  6.8222787922894140e-03  7.5216472958800585e-03  8.1891680041411338e-03  8.8216146515485878e-03  9.4161285426928622e-03  9.9703896797163783e-03  1.0482798724654725e-02  1.0952602767770790e-02  1.1379590033240660e-02  1.1764935677320261e-02  1.2105269295866146e-02  1.2414987080989421e-02  1.2633957831606472e-02  1.2877017798342204e-02  1.2534286839535136e-02  1.4982000256110413e-02  -1.3648396737532244e-02  -1.1072455033973472e-02  -1.1518867883292559e-02  -1.1321240541815486e-02  -1.1180235058226599e-02  -1.0965487536260605e-02  -1.0713036785627256e-02  -1.0418744849711963e-02  -1.0082647716944391e-02  -9.7048079922381052e-03  -9.2857008614274216e-03  -8.8263149479373918e-03  -8.3282006570406276e-03  -7.7933773112857027e-03  -7.2241954089845607e-03  -6.6232025748396593e-03  -5.9930431292576202e-03  -5.3363986602059463e-03  -4.6559644982372495e-03  -3.9544521898671426e-03  -3.2346079934275520e-03  -2.4992390152986095e-03  -1.7512402198571998e-03  -9.9361681634839525e-04  -2.2949777038696736e-04  5.3786214935612681e-04  1.3050921712407038e-03  2.0687251569898118e-03  2.8252231900488273e-03  3.5710045144239054e-03  4.3024679336789266e-03  5.0160127292994180e-03  5.7080550687770605e-03  6.3750454954097230e-03  7.0134959065898672e-03  7.6200292439409113e-03  8.1914628445292209e-03  8.7249437182735489e-03  9.2181065828018747e-03  9.6692812083569134e-03  1.0077590554346266e-02  1.0442858767365146e-02  1.0766236402233217e-02  1.1044956444406463e-02  1.1295572973950823e-02  1.1450243520501282e-02  1.1666604748799972e-02  1.1264663359960720e-02  1.3737921456405932e-02  -1.2537609810275928e-02  -1.0037511805285768e-02  -1.0473144566709150e-02  -1.0280377107001297e-02  -1.0178419098640970e-02  -9.9924184683949820e-03  -9.7797813961995328e-03  -9.5281463628430589e-03  -9.2367422388308605e-03  -8.9047919468654840e-03  -8.5322373310023694e-03  -8.1197816890705640e-03  -7.6688443023544585e-03  -7.1814003485705987e-03  -6.6597997574362328e-03  -6.1066063428936272e-03  -5.5244822762086391e-03  -4.9161212428676824e-03  -4.2842225295182199e-03  -3.6314944605661749e-03  -2.9606762887732369e-03  -2.2745694693434848e-03  -1.5760705884983169e-03  -8.6819895052375566e-04  -1.5411268276487695e-04  5.6289087023364819e-04  1.2793913793526159e-03  1.9918752697600994e-03  2.6967725785755703e-03  3.3904934119532038e-03  4.0694579079608353e-03  4.7301169484235414e-03  5.3689651295843717e-03  5.9825520504766857e-03  6.5675021243150871e-03  7.1205580662440145e-03  7.6386609333986173e-03  8.1190867087069449e-03  8.5596147425527208e-03  8.9587504254011064e-03  9.3158723844436690e-03  9.6311449330061805e-03  9.9063427447927902e-03  1.0139335009575206e-02  1.0348307793559339e-02  1.0467051764492164e-02  1.0656450087430666e-02  1.0234977602712017e-02  1.2724461883403763e-02  -1.1548380759249159e-02  -9.0635577504233171e-03  -9.5130650409353569e-03  -9.3472994981821760e-03  -9.2701410566725945e-03  -9.1089812047130819e-03  -8.9291297749991509e-03  -8.7124208930265817e-03  -8.4586475337847539e-03  -8.1662397153642093e-03  -7.8345590897277023e-03  -7.4639479055620813e-03  -7.0555861799221093e-03  -6.6113039693125797e-03  -6.1333635430755925e-03  -5.6242728809064099e-03  -5.0866515508113056e-03  -4.5231519657607851e-03  -3.9364272128205391e-03  -3.3291333089948559e-03  -2.7039546395416923e-03  -2.0636429770194372e-03  -1.4110608920457964e-03  -7.4921979479653758e-04  -8.1302581180256768e-05  5.8933704761701883e-04  1.2592010889004794e-03  1.9246945475965846e-03  2.5821822986090291e-03  3.2280423994447307e-03  3.8587059472536983e-03  4.4706798621412299e-03  5.0605557678967631e-03  5.6250139297700846e-03  6.1608354894947702e-03  6.6649405167739772e-03  7.1344666267921979e-03  7.5669088500220924e-03  7.9602969133534679e-03  8.3134325517507206e-03  8.6260510107718149e-03  8.8987709435929038e-03  9.1338776348252812e-03  9.3299992614758950e-03  9.5058982997644620e-03  9.5967433510311950e-03  9.7657010840496647e-03  9.3244838031045114e-03  1.1805415935453676e-02  -1.0666730295326105e-02  -8.1918122334135902e-03  -8.6605262099357268e-03  -8.5132370606860915e-03  -8.4545541342895582e-03  -8.3163663350105509e-03  -8.1634121245961547e-03  -7.9757460170347804e-03  -7.7538271201048588e-03  -7.4953022635885882e-03  -7.1991002793358834e-03  -6.8652443483395243e-03  -6.4946569030110163e-03  -6.0889884789022391e-03  -5.6503715678498916e-03  -5.1812164134569221e-03  -4.6840596318105448e-03  -4.1614723529186555e-03  -3.6160196678220969e-03  -3.0502602408595783e-03  -2.4667759156903825e-03  -1.8682222627060302e-03  -1.2573894399213455e-03  -6.3725945442891956e-04  -1.1042531618765143e-05  6.1782312451252256e-04  1.2457145942400627e-03  1.8689019943078672e-03  2.4836395397991864e-03  3.0862458863231633e-03  3.6731575323050896e-03  4.2409517153047466e-03  4.7863463452958773e-03  5.3061914637105448e-03  5.7974699644826226e-03  6.2573277792816904e-03  6.6831492479799519e-03  7.0726981177501409e-03  7.4242988533605343e-03  7.7370804235481049e-03  8.0111399709306332e-03  8.2475044929730176e-03  8.4488859385850688e-03  8.6144184169182486e-03  8.7632992691989327e-03  8.8313247121917533e-03  8.9832466300406276e-03  8.5220548286378296e-03  1.0996108479017719e-02  -9.8829963226806702e-03  -7.4155337303355709e-03  -7.9007101863562742e-03  -7.7676471371755538e-03  -7.7256386962904853e-03  -7.6073578788651321e-03  -7.4766350425825457e-03  -7.3136063236320424e-03  -7.1187974372363223e-03  -6.8892890898620256e-03  -6.6237605951378203e-03  -6.3219683241884910e-03  -5.9846024841341463e-03  -5.6131398435823165e-03  -5.2095747257498680e-03  -4.7762052354305071e-03  -4.3154662848972295e-03  -3.8298238227887022e-03  -3.3217236878451640e-03  -2.7935861531638612e-03  -2.2478398401714517e-03  -1.6869886885821461e-03  -1.1137011318731490e-03  -5.3090239802849166e-04  5.8160960480202024e-05  6.4991654751229164e-04  1.2405378311521229e-03  1.8260765636850284e-03  2.4026130343913175e-03  2.9663778858494941e-03  3.5138197149557583e-03  4.0416191906157166e-03  4.5466680864647922e-03  5.0260379002801583e-03  5.4769620802748676e-03  5.8968543782674286e-03  6.2833787799793052e-03  6.6345895622096024e-03  6.9491139930748938e-03  7.2263977953856791e-03  7.4668664240241526e-03  7.6718911202377357e-03  7.8445114117557946e-03  7.9842348713093717e-03  8.1104929524089941e-03  8.1594928575823740e-03  8.2970770187211808e-03  7.8184349465577428e-03  1.0285655261800902e-02  -9.1903267656175940e-03  -6.7287573742335271e-03  -7.2274990728846897e-03  -7.1060978050825150e-03  -7.0783710072615533e-03  -6.9767320130205805e-03  -6.8647341963921412e-03  -6.7226788269149490e-03  -6.5508804103174764e-03  -6.3461369309655985e-03  -6.1069623635856413e-03  -5.8328896782700000e-03  -5.5244235806829953e-03  -5.1828929293335673e-03  -4.8101686035165224e-03  -4.4084450536062319e-03  -3.9800579274795441e-03  -3.5273625885379220e-03  -3.0526682322121242e-03  -2.5582212067061546e-03  -2.0462409284062151e-03  -1.5190073388186844e-03  -9.7899453166408685e-04  -4.2902749469840551e-04  1.2759501459044570e-04  6.8707922407262444e-04  1.2452592590425555e-03  1.7978336848947039e-03  2.3406212553295272e-03  2.8697428229269703e-03  3.3816933770082608e-03  3.8733237961670907e-03  4.3417757432110257e-03  4.7844114151597865e-03  5.1987690499248401e-03  5.5825667391274031e-03  5.9337669842363609e-03  6.2507166784836511e-03  6.5323316352147208e-03  6.7783438015662787e-03  6.9894595558678396e-03  7.1673303030579368e-03  7.3152438482062586e-03  7.4329811049623365e-03  7.5401026120664391e-03  7.5730792730396438e-03  7.6985543208322616e-03  7.2049302716024550e-03  9.6663627654922212e-03  -8.5830493516251705e-03  -6.1260993890159526e-03  -6.6357537628871886e-03  -6.5239214581250243e-03  -6.5081456140288910e-03  -6.4204168236344089e-03  -6.3242017084981098e-03  -6.1998290289561756e-03  -6.0474321292477567e-03  -5.8636697357540048e-03  -5.6469072481809884e-03  -5.3965038257633557e-03  -5.1128253386884710e-03  -4.7970835947639011e-03  -4.4510537813142684e-03  -4.0768518788493304e-03  -3.6767362773662163e-03  -3.2529679094741382e-03  -2.8077212993284353e-03  -2.3430432817873352e-03  -1.8608827344028368e-03  -1.3631941710119382e-03  -8.5213858895579657e-04  -3.3035945714896870e-04  1.9877115523661595e-04  7.3108057520660582e-04  1.2618190498682098e-03  1.7861104486585984e-03  2.2994010993782890e-03  2.7977153819195191e-03  3.2776911311600894e-03  3.7364760469865560e-03  4.1715797684361965e-03  4.5807456204971326e-03  4.9618746393711990e-03  5.3130175860959007e-03  5.6324393893172967e-03  5.9187641645077121e-03  6.1711656297362884e-03  6.3896189271479293e-03  6.5750586411851891e-03  6.7293549383444706e-03  6.8559789105300493e-03  6.9549098994163821e-03  7.0457725619857380e-03  7.0652144752554619e-03  7.1805108652886526e-03  6.6742452978566427e-03  9.1308256021344365e-03  -8.0564676332919513e-03  -5.6030954104510358e-03  -6.1214055146682142e-03  -6.0173804813964116e-03  -6.0114699813155785e-03  -5.9352595615269404e-03  -5.8521734977884775e-03  -5.7425161404425591e-03  -5.6062954353139896e-03  -5.4400663698800002e-03  -5.2420614345994026e-03  -5.0115108136117607e-03  -4.7486740315647357e-03  -4.4546745331376526e-03  -4.1312240994449637e-03  -3.7803957438801101e-03  -3.4044106298370459e-03  -3.0054780883612266e-03  -2.5856689140574961e-03  -2.1468278839600267e-03  -1.6905750976193401e-03  -1.2183915768076616e-03  -7.3191993526416053e-04  -2.3345399566236278e-04  2.7354439484983666e-04  7.8421976926114920e-04  1.2927729762258582e-03  1.7933910657127693e-03  2.2810473599788653e-03  2.7517931075983853e-03  3.2026328441268582e-03  3.6312326735774276e-03  4.0356388834460258e-03  4.4140808563160588e-03  4.7648723266171837e-03  5.0864058463798044e-03  5.3772302058797189e-03  5.6362103438978278e-03  5.8627303666567293e-03  6.0569543691218865e-03  6.2199874288599872e-03  6.3538588611729502e-03  6.4621660082269392e-03  6.5450267455803143e-03  6.6220872009896872e-03  6.6301132865675396e-03  6.7368891090430370e-03  6.2200696062951824e-03  8.6726673860267525e-03  -7.6067316068391625e-03  -5.1560998880421953e-03  -5.6811769528866650e-03  -5.5834445029899257e-03  -5.5855511857516070e-03  -5.5187309849485423e-03  -5.4463808333117822e-03  -5.3487644032302762e-03  -5.2257889076987984e-03  -5.0739135460054225e-03  -4.8912568184476908e-03  -4.6769445308738325e-03  -4.4311463500070645e-03  -4.1549175542393915e-03  -3.8499328223198393e-03  -3.5182584409610110e-03  -3.1621315913251307e-03  -2.7837827498270809e-03  -2.3852525363592622e-03  -1.9682360364891294e-03  -1.5339960622511933e-03  -1.0833261358080526e-03  -6.1699713619587596e-04  -1.3657433971534687e-04  3.5441265320591071e-04  8.4977522345750867e-04  1.3417300169139292e-03  1.8229738803826963e-03  2.2880605559931705e-03  2.7334724104998449e-03  3.1570319045694673e-03  3.5572655902161997e-03  3.9329585231459400e-03  4.2829145686061653e-03  4.6058729027372240e-03  4.9005364938904204e-03  5.1656838663086116e-03  5.4003567716870366e-03  5.6040829635843588e-03  5.7771497415043220e-03  5.9207701792381726e-03  6.0370738753658896e-03  6.1297328786373371e-03  6.1989532156277779e-03  6.2643724164852402e-03  6.2628331502027398e-03  6.3625301376606892e-03  5.8369856334248094e-03  8.2863444092483099e-03  -7.2307486128692011e-03  -4.7821889018060879e-03  -5.3124652063697092e-03  -5.2197152130991440e-03  -5.2282067092913895e-03  -5.1688797307677522e-03  -5.1051110307182247e-03  -5.0171151277506503e-03  -4.9047084265176448e-03  -4.7642577120937495e-03  -4.5937768916888824e-03  -4.3922923299029946e-03  -4.1598848509905974e-03  -3.8975439957597054e-03  -3.6069137865429373e-03  -3.2900740559639106e-03  -2.9493282010064812e-03  -2.5870199269211287e-03  -2.2052881463330855e-03  -1.8058425105677810e-03  -1.3896461165455337e-03  -9.5654570730104862e-04  -5.0586687023519272e-04  -3.7497840667621389e-05  4.4508582901711706e-04  9.3279567157481349e-04  1.4139552075644480e-03  1.8791247229561154e-03  2.3230912030892648e-03  2.7437699424058145e-03  3.1405698214771764e-03  3.5132979621614381e-03  3.8616336212346758e-03  4.1849559210864222e-03  4.4823562750311210e-03  4.7527479992220270e-03  4.9950361478196372e-03  5.2083431575786964e-03  5.3922547188940779e-03  5.5471062843962526e-03  5.6741539938437230e-03  5.7755711958956514e-03  5.8550586523585619e-03  5.9128678985342787e-03  5.9686063603870956e-03  5.9591620560350183e-03  6.0530564515536203e-03  5.5204017309242962e-03  7.9671510558518392e-03  -6.9260963580114994e-03  -4.4790735962247259e-03  -5.0132486266601462e-03  -4.9243399991919633e-03  -4.9377725646652182e-03  -4.8842474058774614e-03  -4.8271246267698404e-03  -4.7465645866810249e-03  -4.6422988151378752e-03  -4.5106024750034834e-03  -4.3493848455977676e-03  -4.1575652128775344e-03  -3.9351207024817762e-03  -3.6829525450577023e-03  -3.4026462598688977e-03  -3.0962738263094207e-03  -2.7662120851949267e-03  -2.4149817635931098e-03  -2.0449864137120767e-03  -1.6582798676012824e-03  -1.2557803802958219e-03  -8.3630464182443199e-04  -3.9685946476547557e-04  6.6898715643162659e-05  5.5163382762554052e-04  1.0413642161821964e-03  1.5168839494426785e-03  1.9666144389448100e-03  2.3879059770570868e-03  2.7820786444386451e-03  3.1511127551091343e-03  3.4963739616369048e-03  3.8183627076130784e-03  4.1168355951746727e-03  4.3910220506171715e-03  4.6398563384622421e-03  4.8622152039437668e-03  5.0571789796273305e-03  5.2242945601891737e-03  5.3638688896650065e-03  5.4771400687314790e-03  5.5662753930866508e-03  5.6349664928965265e-03  5.6834762066561130e-03  5.7313683350493352e-03  5.7155524653456739e-03  5.8048026377812536e-03  5.2664948214649412e-03  7.7111793781004471e-03  -6.6909356997247420e-03  -4.2450168345167525e-03  -4.7820050394553745e-03  -4.6959343518985950e-03  -4.7130258067213226e-03  -4.6637931389393638e-03  -4.6115823906495521e-03  -4.5364994346284932e-03  -4.4381980921120246e-03  -4.3128641621699628e-03  -4.1583010707269673e-03  -3.9733103785583061e-03  -3.7577417582328101e-03  -3.5123654821672687e-03  -3.2386430901142783e-03  -2.9385522344951352e-03  -2.6144472282540725e-03  -2.2689597799969360e-03  -1.9048455009462845e-03  -1.5249084477357083e-03  -1.1306107160229412e-03  -7.2052481853951682e-04  -2.8813489357590652e-04  1.8164795266000690e-04  6.8420163889885836e-04  1.1874918621896844e-03  1.6591706028528060e-03  2.0883151732321013e-03  2.4807348334824285e-03  2.8440077723375281e-03  3.1832294132277360e-03  3.5009630282663664e-03  3.7979736875326841e-03  4.0739025805129120e-03  4.3277460286537074e-03  4.5581971429064887e-03  4.7639232991817373e-03  4.9438374556201297e-03  5.0973595880678402e-03  5.2247044978443510e-03  5.3270452291939441e-03  5.4065067041686090e-03  5.4667458394837770e-03  5.5080130426224030e-03  5.5498239028657741e-03  5.5290927544652578e-03  5.6147796801191011e-03  5.0721721068500841e-03  7.5152810202333718e-03  -6.5239294764631271e-03  -4.0787568238859831e-03  -4.6176389056993101e-03  -4.5335111757117633e-03  -4.5531126828131747e-03  -4.5068189403820310e-03  -4.4579658813022650e-03  -4.3866112232052159e-03  -4.2923439723719604e-03  -4.1712709944935365e-03  -4.0210983320878354e-03  -3.8405108276804794e-03  -3.6292184014931434e-03  -3.3878249283565043e-03  -3.1175954652042162e-03  -2.8202836270712342e-03  -2.4980083316703972e-03  -2.1532127290230423e-03  -1.7886975410376811e-03  -1.4078609345770201e-03  -1.0132740216225278e-03  -6.0617116084129706e-04  -1.7668769736024135e-04  3.1467236393122695e-04  8.5516326725443498e-04  1.3825737912629384e-03  1.8443555753470313e-03  2.2384630829449786e-03  2.5912286223456794e-03  2.9182845668837705e-03  3.2265990479576892e-03  3.5183127879148219e-03  3.7932925252495433e-03  4.0503397921482602e-03  4.2877922318380118e-03  4.5038572091910560e-03  4.6968523503191882e-03  4.8654413802189213e-03  5.0088679763931653e-03  5.1272233715972775e-03  5.2215944727180500e-03  5.2940480193436603e-03  5.3481968295297829e-03  5.3842675444016712e-03  5.4217327855563165e-03  5.3975016811287505e-03  5.4806601000697407e-03  4.9350447722737688e-03  7.3770350934066545e-03  -6.4241739089996499e-03  -3.9794417881959263e-03  -4.5194184168508133e-03  -4.4364179094876421e-03  -4.4574818371064208e-03  -4.4128953512494323e-03  -4.3659909152551600e-03  -4.2967920962989417e-03  -4.2048446025653892e-03  -4.0862000393394240e-03  -3.9384941794272420e-03  -3.7603230178159890e-03  -3.5512824056977569e-03  -3.3118268628961598e-03  -3.0430206887010385e-03  -2.7463412192421247e-03  -2.4235202633864890e-03  -2.0764698465011553e-03  -1.7073213305834594e-03  -1.3186955083698347e-03  -9.1303800955991733e-04  -4.9599741260759336e-04  -6.1309542968338970e-05  4.6482505257320055e-04  1.0504457481436483e-03  1.6106865043007358e-03  2.0541823048531222e-03  2.3897629502948972e-03  2.6936385126452933e-03  2.9842130620610758e-03  3.2656185433920762e-03  3.5369466303626783e-03  3.7958938028894184e-03  4.0398941683863765e-03  4.2664293540159463e-03  4.4731626183100700e-03  4.6580581142697097e-03  4.8195451443614782e-03  4.9567094476700210e-03  5.0695348856244909e-03  5.1590349374192618e-03  5.2272265312490315e-03  5.2776865659074045e-03  5.3106191711006631e-03  5.3454686917323545e-03  5.3191354079145737e-03  5.4007756140727744e-03  4.8534125697104582e-03  7.2947250134638457e-03  -6.3911470292235149e-03  -3.9465799446021885e-03  -4.4869259531136463e-03  -4.4042854580544546e-03  -4.4258276948846336e-03  -4.3817949041308800e-03  -4.3355251094371588e-03  -4.2670280541295515e-03  -4.1758354124945413e-03  -4.0579796504446484e-03  -3.9110721833702953e-03  -3.7336775110337569e-03  -3.5253499588108043e-03  -3.2864876960308088e-03  -3.0180754431736751e-03  -2.7214731730047731e-03  -2.3982320757658295e-03  -2.0499771376155003e-03  -1.6783590227022653e-03  -1.2851224619870644e-03  -8.7198826827923203e-04  -4.4420987481547499e-04  -5.3419156204806336e-06  5.6370250326830357e-04  1.1597357884569634e-03  1.7358970625304942e-03  2.2008352209362632e-03  2.4780791009800605e-03  2.7437251078053448