<?xml version="1.0"?>
<VTKFile type="UnstructuredGrid"  version="0.1"  >
<UnstructuredGrid>
<Piece  NumberOfPoints="1617" NumberOfCells="3072">
<Points>
<DataArray  type="Float64"  NumberOfComponents="3"  format="ascii">0 0 0  0.03125 0 0  0.0625 0 0  0.09375 0 0  0.125 0 0  0.15625 0 0  0.1875 0 0  0.21875 0 0  0.25 0 0  0.28125 0 0  0.3125 0 0  0.34375 0 0  0.375 0 0  0.40625 0 0  0.4375 0 0  0.46875 0 0  0.5 0 0  0.53125 0 0  0.5625 0 0  0.59375 0 0  0.625 0 0  0.65625 0 0  0.6875 0 0  0.71875 0 0  0.75 0 0  0.78125 0 0  0.8125 0 0  0.84375 0 0  0.875 0 0  0.90625 0 0  0.9375 0 0  0.96875 0 0  1 0 0  1.03125 0 0  1.0625 0 0  1.09375 0 0  1.125 0 0  1.15625 0 0  1.1875 0 0  1.21875 0 0  1.25 0 0  1.28125 0 0  1.3125 0 0  1.34375 0 0  1.375 0 0  1.40625 0 0  1.4375 0 0  1.46875 0 0  1.5 0 0  0 0.03125 0  0.03125 0.03125 0  0.0625 0.03125 0  0.09375 0.03125 0  0.125 0.03125 0  0.15625 0.03125 0  0.1875 0.03125 0  0.21875 0.03125 0  0.25 0.03125 0  0.28125 0.03125 0  0.3125 0.03125 0  0.34375 0.03125 0  0.375 0.03125 0  0.40625 0.03125 0  0.4375 0.03125 0  0.46875 0.03125 0  0.5 0.03125 0  0.53125 0.03125 0  0.5625 0.03125 0  0.59375 0.03125 0  0.625 0.03125 0  0.65625 0.03125 0  0.6875 0.03125 0  0.71875 0.03125 0  0.75 0.03125 0  0.78125 0.03125 0  0.8125 0.03125 0  0.84375 0.03125 0  0.875 0.03125 0  0.90625 0.03125 0  0.9375 0.03125 0  0.96875 0.03125 0  1 0.03125 0  1.03125 0.03125 0  1.0625 0.03125 0  1.09375 0.03125 0  1.125 0.03125 0  1.15625 0.03125 0  1.1875 0.03125 0  1.21875 0.03125 0  1.25 0.03125 0  1.28125 0.03125 0  1.3125 0.03125 0  1.34375 0.03125 0  1.375 0.03125 0  1.40625 0.03125 0  1.4375 0.03125 0  1.46875 0.03125 0  1.5 0.03125 0  0 0.0625 0  0.03125 0.0625 0  0.0625 0.0625 0  0.09375 0.0625 0  0.125 0.0625 0  0.15625 0.0625 0  0.1875 0.0625 0  0.21875 0.0625 0  0.25 0.0625 0  0.28125 0.0625 0  0.3125 0.0625 0  0.34375 0.0625 0  0.375 0.0625 0  0.40625 0.0625 0  0.4375 0.0625 0  0.46875 0.0625 0  0.5 0.0625 0  0.53125 0.0625 0  0.5625 0.0625 0  0.59375 0.0625 0  0.625 0.0625 0  0.65625 0.0625 0  0.6875 0.0625 0  0.71875 0.0625 0  0.75 0.0625 0  0.78125 0.0625 0  0.8125 0.0625 0  0.84375 0.0625 0  0.875 0.0625 0  0.90625 0.0625 0  0.9375 0.0625 0  0.96875 0.0625 0  1 0.0625 0  1.03125 0.0625 0  1.0625 0.0625 0  1.09375 0.0625 0  1.125 0.0625 0  1.15625 0.0625 0  1.1875 0.0625 0  1.21875 0.0625 0  1.25 0.0625 0  1.28125 0.0625 0  1.3125 0.0625 0  1.34375 0.0625 0  1.375 0.0625 0  1.40625 0.0625 0  1.4375 0.0625 0  1.46875 0.0625 0  1.5 0.0625 0  0 0.09375 0  0.03125 0.09375 0  0.0625 0.09375 0  0.09375 0.09375 0  0.125 0.09375 0  0.15625 0.09375 0  0.1875 0.09375 0  0.21875 0.09375 0  0.25 0.09375 0  0.28125 0.09375 0  0.3125 0.09375 0  0.34375 0.09375 0  0.375 0.09375 0  0.40625 0.09375 0  0.4375 0.09375 0  0.46875 0.09375 0  0.5 0.09375 0  0.53125 0.09375 0  0.5625 0.09375 0  0.59375 0.09375 0  0.625 0.09375 0  0.65625 0.09375 0  0.6875 0.09375 0  0.71875 0.09375 0  0.75 0.09375 0  0.78125 0.09375 0  0.8125 0.09375 0  0.84375 0.09375 0  0.875 0.09375 0  0.90625 0.09375 0  0.9375 0.09375 0  0.96875 0.09375 0  1 0.09375 0  1.03125 0.09375 0  1.0625 0.09375 0  1.09375 0.09375 0  1.125 0.09375 0  1.15625 0.09375 0  1.1875 0.09375 0  1.21875 0.09375 0  1.25 0.09375 0  1.28125 0.09375 0  1.3125 0.09375 0  1.34375 0.09375 0  1.375 0.09375 0  1.40625 0.09375 0  1.4375 0.09375 0  1.46875 0.09375 0  1.5 0.09375 0  0 0.125 0  0.03125 0.125 0  0.0625 0.125 0  0.09375 0.125 0  0.125 0.125 0  0.15625 0.125 0  0.1875 0.125 0  0.21875 0.125 0  0.25 0.125 0  0.28125 0.125 0  0.3125 0.125 0  0.34375 0.125 0  0.375 0.125 0  0.40625 0.125 0  0.4375 0.125 0  0.46875 0.125 0  0.5 0.125 0  0.53125 0.125 0  0.5625 0.125 0  0.59375 0.125 0  0.625 0.125 0  0.65625 0.125 0  0.6875 0.125 0  0.71875 0.125 0  0.75 0.125 0  0.78125 0.125 0  0.8125 0.125 0  0.84375 0.125 0  0.875 0.125 0  0.90625 0.125 0  0.9375 0.125 0  0.96875 0.125 0  1 0.125 0  1.03125 0.125 0  1.0625 0.125 0  1.09375 0.125 0  1.125 0.125 0  1.15625 0.125 0  1.1875 0.125 0  1.21875 0.125 0  1.25 0.125 0  1.28125 0.125 0  1.3125 0.125 0  1.34375 0.125 0  1.375 0.125 0  1.40625 0.125 0  1.4375 0.125 0  1.46875 0.125 0  1.5 0.125 0  0 0.15625 0  0.03125 0.15625 0  0.0625 0.15625 0  0.09375 0.15625 0  0.125 0.15625 0  0.15625 0.15625 0  0.1875 0.15625 0  0.21875 0.15625 0  0.25 0.15625 0  0.28125 0.15625 0  0.3125 0.15625 0  0.34375 0.15625 0  0.375 0.15625 0  0.40625 0.15625 0  0.4375 0.15625 0  0.46875 0.15625 0  0.5 0.15625 0  0.53125 0.15625 0  0.5625 0.15625 0  0.59375 0.15625 0  0.625 0.15625 0  0.65625 0.15625 0  0.6875 0.15625 0  0.71875 0.15625 0  0.75 0.15625 0  0.78125 0.15625 0  0.8125 0.15625 0  0.84375 0.15625 0  0.875 0.15625 0  0.90625 0.15625 0  0.9375 0.15625 0  0.96875 0.15625 0  1 0.15625 0  1.03125 0.15625 0  1.0625 0.15625 0  1.09375 0.15625 0  1.125 0.15625 0  1.15625 0.15625 0  1.1875 0.15625 0  1.21875 0.15625 0  1.25 0.15625 0  1.28125 0.15625 0  1.3125 0.15625 0  1.34375 0.15625 0  1.375 0.15625 0  1.40625 0.15625 0  1.4375 0.15625 0  1.46875 0.15625 0  1.5 0.15625 0  0 0.1875 0  0.03125 0.1875 0  0.0625 0.1875 0  0.09375 0.1875 0  0.125 0.1875 0  0.15625 0.1875 0  0.1875 0.1875 0  0.21875 0.1875 0  0.25 0.1875 0  0.28125 0.1875 0  0.3125 0.1875 0  0.34375 0.1875 0  0.375 0.1875 0  0.40625 0.1875 0  0.4375 0.1875 0  0.46875 0.1875 0  0.5 0.1875 0  0.53125 0.1875 0  0.5625 0.1875 0  0.59375 0.1875 0  0.625 0.1875 0  0.65625 0.1875 0  0.6875 0.1875 0  0.71875 0.1875 0  0.75 0.1875 0  0.78125 0.1875 0  0.8125 0.1875 0  0.84375 0.1875 0  0.875 0.1875 0  0.90625 0.1875 0  0.9375 0.1875 0  0.96875 0.1875 0  1 0.1875 0  1.03125 0.1875 0  1.0625 0.1875 0  1.09375 0.1875 0  1.125 0.1875 0  1.15625 0.1875 0  1.1875 0.1875 0  1.21875 0.1875 0  1.25 0.1875 0  1.28125 0.1875 0  1.3125 0.1875 0  1.34375 0.1875 0  1.375 0.1875 0  1.40625 0.1875 0  1.4375 0.1875 0  1.46875 0.1875 0  1.5 0.1875 0  0 0.21875 0  0.03125 0.21875 0  0.0625 0.21875 0  0.09375 0.21875 0  0.125 0.21875 0  0.15625 0.21875 0  0.1875 0.21875 0  0.21875 0.21875 0  0.25 0.21875 0  0.28125 0.21875 0  0.3125 0.21875 0  0.34375 0.21875 0  0.375 0.21875 0  0.40625 0.21875 0  0.4375 0.21875 0  0.46875 0.21875 0  0.5 0.21875 0  0.53125 0.21875 0  0.5625 0.21875 0  0.59375 0.21875 0  0.625 0.21875 0  0.65625 0.21875 0  0.6875 0.21875 0  0.71875 0.21875 0  0.75 0.21875 0  0.78125 0.21875 0  0.8125 0.21875 0  0.84375 0.21875 0  0.875 0.21875 0  0.90625 0.21875 0  0.9375 0.21875 0  0.96875 0.21875 0  1 0.21875 0  1.03125 0.21875 0  1.0625 0.21875 0  1.09375 0.21875 0  1.125 0.21875 0  1.15625 0.21875 0  1.1875 0.21875 0  1.21875 0.21875 0  1.25 0.21875 0  1.28125 0.21875 0  1.3125 0.21875 0  1.34375 0.21875 0  1.375 0.21875 0  1.40625 0.21875 0  1.4375 0.21875 0  1.46875 0.21875 0  1.5 0.21875 0  0 0.25 0  0.03125 0.25 0  0.0625 0.25 0  0.09375 0.25 0  0.125 0.25 0  0.15625 0.25 0  0.1875 0.25 0  0.21875 0.25 0  0.25 0.25 0  0.28125 0.25 0  0.3125 0.25 0  0.34375 0.25 0  0.375 0.25 0  0.40625 0.25 0  0.4375 0.25 0  0.46875 0.25 0  0.5 0.25 0  0.53125 0.25 0  0.5625 0.25 0  0.59375 0.25 0  0.625 0.25 0  0.65625 0.25 0  0.6875 0.25 0  0.71875 0.25 0  0.75 0.25 0  0.78125 0.25 0  0.8125 0.25 0  0.84375 0.25 0  0.875 0.25 0  0.90625 0.25 0  0.9375 0.25 0  0.96875 0.25 0  1 0.25 0  1.03125 0.25 0  1.0625 0.25 0  1.09375 0.25 0  1.125 0.25 0  1.15625 0.25 0  1.1875 0.25 0  1.21875 0.25 0  1.25 0.25 0  1.28125 0.25 0  1.3125 0.25 0  1.34375 0.25 0  1.375 0.25 0  1.40625 0.25 0  1.4375 0.25 0  1.46875 0.25 0  1.5 0.25 0  0 0.28125 0  0.03125 0.28125 0  0.0625 0.28125 0  0.09375 0.28125 0  0.125 0.28125 0  0.15625 0.28125 0  0.1875 0.28125 0  0.21875 0.28125 0  0.25 0.28125 0  0.28125 0.28125 0  0.3125 0.28125 0  0.34375 0.28125 0  0.375 0.28125 0  0.40625 0.28125 0  0.4375 0.28125 0  0.46875 0.28125 0  0.5 0.28125 0  0.53125 0.28125 0  0.5625 0.28125 0  0.59375 0.28125 0  0.625 0.28125 0  0.65625 0.28125 0  0.6875 0.28125 0  0.71875 0.28125 0  0.75 0.28125 0  0.78125 0.28125 0  0.8125 0.28125 0  0.84375 0.28125 0  0.875 0.28125 0  0.90625 0.28125 0  0.9375 0.28125 0  0.96875 0.28125 0  1 0.28125 0  1.03125 0.28125 0  1.0625 0.28125 0  1.09375 0.28125 0  1.125 0.28125 0  1.15625 0.28125 0  1.1875 0.28125 0  1.21875 0.28125 0  1.25 0.28125 0  1.28125 0.28125 0  1.3125 0.28125 0  1.34375 0.28125 0  1.375 0.28125 0  1.40625 0.28125 0  1.4375 0.28125 0  1.46875 0.28125 0  1.5 0.28125 0  0 0.3125 0  0.03125 0.3125 0  0.0625 0.3125 0  0.09375 0.3125 0  0.125 0.3125 0  0.15625 0.3125 0  0.1875 0.3125 0  0.21875 0.3125 0  0.25 0.3125 0  0.28125 0.3125 0  0.3125 0.3125 0  0.34375 0.3125 0  0.375 0.3125 0  0.40625 0.3125 0  0.4375 0.3125 0  0.46875 0.3125 0  0.5 0.3125 0  0.53125 0.3125 0  0.5625 0.3125 0  0.59375 0.3125 0  0.625 0.3125 0  0.65625 0.3125 0  0.6875 0.3125 0  0.71875 0.3125 0  0.75 0.3125 0  0.78125 0.3125 0  0.8125 0.3125 0  0.84375 0.3125 0  0.875 0.3125 0  0.90625 0.3125 0  0.9375 0.3125 0  0.96875 0.3125 0  1 0.3125 0  1.03125 0.3125 0  1.0625 0.3125 0  1.09375 0.3125 0  1.125 0.3125 0  1.15625 0.3125 0  1.1875 0.3125 0  1.21875 0.3125 0  1.25 0.3125 0  1.28125 0.3125 0  1.3125 0.3125 0  1.34375 0.3125 0  1.375 0.3125 0  1.40625 0.3125 0  1.4375 0.3125 0  1.46875 0.3125 0  1.5 0.3125 0  0 0.34375 0  0.03125 0.34375 0  0.0625 0.34375 0  0.09375 0.34375 0  0.125 0.34375 0  0.15625 0.34375 0  0.1875 0.34375 0  0.21875 0.34375 0  0.25 0.34375 0  0.28125 0.34375 0  0.3125 0.34375 0  0.34375 0.34375 0  0.375 0.34375 0  0.40625 0.34375 0  0.4375 0.34375 0  0.46875 0.34375 0  0.5 0.34375 0  0.53125 0.34375 0  0.5625 0.34375 0  0.59375 0.34375 0  0.625 0.34375 0  0.65625 0.34375 0  0.6875 0.34375 0  0.71875 0.34375 0  0.75 0.34375 0  0.78125 0.34375 0  0.8125 0.34375 0  0.84375 0.34375 0  0.875 0.34375 0  0.90625 0.34375 0  0.9375 0.34375 0  0.96875 0.34375 0  1 0.34375 0  1.03125 0.34375 0  1.0625 0.34375 0  1.09375 0.34375 0  1.125 0.34375 0  1.15625 0.34375 0  1.1875 0.34375 0  1.21875 0.34375 0  1.25 0.34375 0  1.28125 0.34375 0  1.3125 0.34375 0  1.34375 0.34375 0  1.375 0.34375 0  1
[...]
<PointData  Scalars="f_49"> 
<DataArray  type="Float64"  Name="f_49"  format="ascii">2.7668341099603366e-01  2.6202543113125598e-01  2.4739390686292223e-01  2.3319681520368263e-01  2.1948999336343492e-01  2.0624824793460747e-01  1.9343062136376332e-01  1.8099618928470448e-01  1.6890750100943072e-01  1.5713086778994145e-01  1.4563588805683883e-01  1.3439484967373611e-01  1.2338217765755921e-01  1.1257396490859768e-01  1.0194758869533073e-01  9.1481408997266159e-02  8.1154545982243032e-02  7.0946736047764469e-02  6.0838266161146341e-02  5.0809983253108114e-02  4.0843368653456696e-02  3.0920657723793373e-02  2.1024974224102325e-02  1.1140441255522545e-02  1.2522299392797520e-03  -8.6534840938214900e-03  -1.8589668625526325e-02  -2.8568677638064519e-02  -3.8602560526468557e-02  -4.8703399204385996e-02  -5.8883635523719315e-02  -6.9156361446751899e-02  -7.9535558958460068e-02  -9.0036291088134046e-02  -1.0067485649207630e-01  -1.1146892676949727e-01  -1.2243768859143199e-01  -1.3360201314717915e-01  -1.4498467467253170e-01  -1.5661063853826310e-01  -1.6850743646588304e-01  -1.8070563637972750e-01  -1.9323937798622334e-01  -2.0614681615485259e-01  -2.1946985251425744e-01  -2.3325081937663164e-01  -2.4751707412474538e-01  -2.6221694531524270e-01  -2.7695269992287674e-01  2.8636251627826814e-01  2.7009844774558633e-01  2.5476399466404615e-01  2.4008733970434484e-01  2.2596423345068858e-01  2.1232971716620275e-01  1.9913211331871733e-01  1.8632716130259802e-01  1.7387606899572000e-01  1.6174438427266055e-01  1.4990112539736727e-01  1.3831806709883099e-01  1.2696915234143183e-01  1.1583001087849816e-01  1.0487757028470630e-01  9.4089750294348976e-02  8.3445236351075827e-02  7.2923331978475628e-02  6.2503890638295895e-02  5.2167325050234026e-02  4.1894684928673182e-02  3.1667783338774950e-02  2.1469339764232369e-02  1.1283098725737784e-02  1.0938813477315303e-03  -9.1124629804462919e-03  -1.9349217509321309e-02  -2.9629059357111475e-02  -3.9964387741070889e-02  -5.0367675689654140e-02  -6.0851804508556540e-02  -7.1430352979301490e-02  -8.2117830073582254e-02  -9.2929855448994944e-02  -1.0388330301168422e-01  -1.1499642876448483e-01  -1.2628900608807303e-01  -1.3778249127720277e-01  -1.4950024121530089e-01  -1.6146780464325391e-01  -1.7371330901350493e-01  -1.8626796622779981e-01  -1.9916672279707945e-01  -2.1244909095089373e-01  -2.2616027479165315e-01  -2.4035318040709333e-01  -2.5509449696853631e-01  -2.7049142770294010e-01  -2.8682267521202032e-01  2.9360490252501437e-01  2.7704915812964248e-01  2.6134297060269068e-01  2.4631283744198920e-01  2.3185128647183784e-01  2.1788554712099015e-01  2.0436044858161059e-01  1.9123077486020182e-01  1.7845774780863627e-01  1.6600718444490514e-01  1.5384836559151530e-01  1.4195324573242293e-01  1.3029585434568408e-01  1.1885182234215019e-01  1.0759800195005934e-01  9.6512165565474664e-02  8.5572779332152377e-02  7.4758853670360448e-02  6.4049875828366881e-02  5.3425827704002220e-02  4.2867284430206855e-02  3.2355575396085648e-02  2.1872971878420334e-02  1.1402850043528036e-02  9.2977280149573289e-04  -9.5605545296823264e-03  -2.0081471501164176e-02  -3.0645673419759090e-02  -4.1265596990981458e-02  -5.1953820209745302e-02  -6.2723424152830470e-02  -7.3588285443246484e-02  -8.4563292144553937e-02  -9.5664494946076026e-02  -1.0690921657698432e-01  -1.1831614617009353e-01  -1.2990544442396529e-01  -1.4169888275833226e-01  -1.5372003753023708e-01  -1.6599456054245168e-01  -1.7855055149839327e-01  -1.9141907077216672e-01  -2.0463486282410753e-01  -2.1823744319575863e-01  -2.3227292404387004e-01  -2.4679754974663426e-01  -2.6188539798885035e-01  -2.7764546015618763e-01  -2.9425190982032140e-01  2.9955359287155964e-01  2.8298341076977845e-01  2.6711240459797331e-01  2.5185724661129416e-01  2.3714407424858605e-01  2.2291272541726651e-01  2.0911370161748327e-01  1.9570504438081338e-01  1.8265018550451836e-01  1.6991654854062188e-01  1.5747460281067430e-01  1.4529717927868985e-01  1.3335894379456625e-01  1.2163597278946621e-01  1.1010540369505969e-01  9.8745148576445549e-02  8.7533670703571181e-02  7.6449832254708291e-02  6.5472826719952748e-02  5.4582209680117989e-02  4.3758033358161703e-02  3.2981071443374164e-02  2.2233092760419751e-02  1.1497113638224279e-02  7.5754398939834695e-04  -9.9998442302441908e-03  -2.0788152345496601e-02  -3.1619759885051890e-02  -4.2506817662514768e-02  -5.3461734358126317e-02  -6.4497583075364295e-02  -7.5628393320971085e-02  -8.6869331333337990e-02  -9.8236796094982926e-02  -1.0974846784753300e-01  -1.2142334462520059e-01  -1.3328179590580594e-01  -1.4534565547633846e-01  -1.5763837074731119e-01  -1.7018522449509793e-01  -1.8301364864764788e-01  -1.9615366074127877e-01  -2.0963847758832829e-01  -2.2350540791558207e-01  -2.3779720828206621e-01  -2.5256418329731450e-01  -2.6786719616993038e-01  -2.8378035502624255e-01  -3.0038575861545830e-01  3.0460522283126401e-01  2.8808412348312701e-01  2.7214680325869467e-01  2.5675432158945288e-01  2.4186098906619033e-01  2.2742273297820106e-01  2.1339940020112425e-01  1.9975482571363312e-01  1.8645629492302709e-01  1.7347394026803875e-01  1.6078020742427715e-01  1.4834940298381333e-01  1.3615730749431507e-01  1.2418083724326040e-01  1.1239774436334396e-01  1.0078635278055705e-01  8.9325336663672372e-02  7.7993558139246050e-02  6.6769990475274724e-02  5.5633757632532498e-02  4.4564314432952071e-02  3.3541766581704213e-02  2.2547284456039273e-02  1.1563509746443266e-02  5.7481697268090242e-04  -1.0432693897324050e-02  -2.1471519367174587e-02  -3.2553324277232461e-02  -4.3689617509331785e-02  -5.4892374229716732e-02  -6.6174499023468475e-02  -7.7550098436735729e-02  -8.9034590607275421e-02  -1.0064470845097521e-01  -1.1239845529414036e-01  -1.2431505976312771e-01  -1.3641496090639277e-01  -1.4871984120302287e-01  -1.6125271655943124e-01  -1.7403808854770828e-01  -1.8710216407053007e-01  -2.0047315018910092e-01  -2.1418163491970538e-01  -2.2826106162591997e-01  -2.4274827194313428e-01  -2.5768395808932493e-01  -2.7311243883752573e-01  -2.8907905823984598e-01  -3.0562134073693370e-01  3.0894916407496342e-01  2.9249063716543272e-01  2.7653269323529805e-01  2.6105687624675988e-01  2.4603554979225212e-01  2.3143788478486196e-01  2.1723292945510750e-01  2.0339090937175441e-01  1.8988364519280507e-01  1.7668457696913975e-01  1.6376862592302444e-01  1.5111199288190036e-01  1.3869193250008052e-01  1.2648651724118876e-01  1.1447439646164985e-01  1.0263455626628229e-01  9.0946092673574661e-02  7.9388023256470555e-02  6.7939178983988907e-02  5.6578232826972497e-02  4.5283923111001739e-02  3.4035500958015920e-02  2.2813359739111028e-02  1.1599699825667591e-02  3.7899339647982157e-04  -1.0861980386464016e-02  -2.2134616380291537e-02  -3.3449351767043480e-02  -4.4816645337049855e-02  -5.6247797803058018e-02  -6.7755466565494082e-02  -7.9353869442778349e-02  -9.1058760731873342e-02  -1.0288728730467887e-01  -1.1485781467460007e-01  -1.2698978043425505e-01  -1.3930360274137094e-01  -1.5182065118460025e-01  -1.6456327613480051e-01  -1.7755488758192137e-01  -1.9082007193538025e-01  -2.0438473159730530e-01  -2.1827622214465472e-01  -2.3252343599434805e-01  -2.4715671958846189e-01  -2.6220737606179512e-01  -2.7770624526828019e-01  -2.9368046607859660e-01  -3.1014732729615019e-01  3.1269943120557381e-01  2.9630326247579836e-01  2.8034619160880103e-01  2.6481958855534904e-01  2.4970668104019467e-01  2.3498616802751274e-01  2.2063470027517768e-01  2.0662835203927785e-01  1.9294340720249284e-01  1.7955673228420366e-01  1.6644591310717452e-01  1.5358925626633269e-01  1.4096570852459031e-01  1.2855471974100371e-01  1.1633606091532607e-01  1.0428960479127813e-01  9.2395081742969995e-02  8.0631839770495844e-02  6.8978665045704421e-02  5.7413753823598805e-02  4.5914950670090618e-02  3.4460348233956169e-02  2.3029239844226394e-02  1.1603219231660132e-02  1.6701291811004106e-04  -1.1291406961174498e-02  -2.2781605805840755e-02  -3.4312093453800208e-02  -4.5891806773414028e-02  -5.7531197596389014e-02  -6.9242747758009371e-02  -8.1040995058069262e-02  -9.2942269312256187e-02  -1.0496432818798207e-01  -1.1712601786309282e-01  -1.2944701695378935e-01  -1.4194767589945753e-01  -1.5464893944529284e-01  -1.6757233019969978e-01  -1.8073996885117477e-01  -1.9417460557660482e-01  -2.0789963295494715e-01  -2.2193903893135586e-01  -2.3631723331641147e-01  -2.5105863525892980e-01  -2.6618683579258146e-01  -2.8172305962849342e-01  -2.9768361540005478e-01  -3.1407625610344930e-01  3.1593452217249013e-01  2.9959615637157255e-01  2.8364995281055172e-01  2.6809230721566191e-01  2.5291298354847103e-01  2.3809721986546911e-01  2.2362747874598685e-01  2.0948470665518534e-01  1.9564916211627204e-01  1.8210092414860132e-01  1.6882018060382284e-01  1.5578736717017710e-01  1.4298320043954052e-01  1.3038862738724938e-01  1.1798469926153425e-01  1.0575237064741480e-01  9.3672227005044129e-02  8.1724161947506480e-02  6.9887066259651742e-02  5.8138656865086451e-02  4.6455648835557042e-02  3.4814499899298051e-02  2.3192832775337589e-02  1.1571282702191283e-02  -6.4973884468724324e-05  -1.1725954165191290e-02  -2.3418251865870359e-02  -3.5147455422151051e-02  -4.6920462557263905e-02  -5.8746875379123702e-02  -7.0639348118620812e-02  -8.2613216460148839e-02  -9.4685827681631904e-02  -1.0687587204896654e-01  -1.1920285919489051e-01  -1.3168677055050004e-01  -1.4434786171202307e-01  -1.5720656993180371e-01  -1.7028348225761705e-01  -1.8359932590236236e-01  -1.9717494702264415e-01  -2.1103124373897753e-01  -2.2518901207553343e-01  -2.3966864837724589e-01  -2.5448962910933609e-01  -2.6966966472179948e-01  -2.8522341889355807e-01  -3.0116074620274924e-01  -3.1748460924407762e-01  3.1871258773339101e-01  3.0242599356666339e-01  2.8649484328420605e-01  2.7091826641583033e-01  2.5569004154949099e-01  2.4079983840985814e-01  2.2623440237987463e-01  2.1197853047776968e-01  1.9801580719854697e-01  1.8432912682906705e-01  1.7090104546405274e-01  1.5771400175011446e-01  1.4475043315052727e-01  1.3199280021257806e-01  1.1942351736746765e-01  1.0702477719426109e-01  9.4778250338948627e-02  8.2664655658492209e-02  7.0663243125329636e-02  5.8751338439596672e-02  4.6904267474623187e-02  3.5096139975253626e-02  2.3301910409549965e-02  1.1500536735925358e-02  -3.2209507864273376e-04  -1.2172582385649229e-02  -2.4052645507852674e-02  -3.5963516089904488e-02  -4.7909601132908382e-02  -5.9900065218767583e-02  -7.1948576100389142e-02  -8.4072136301581668e-02  -9.6289784393034733e-02  -1.0862156157932668e-01  -1.2108783664024843e-01  -1.3370893300122852e-01  -1.4650495998196530e-01  -1.5949575883866068e-01  -1.7270089670457175e-01  -1.8613966149581837e-01  -1.9983102325727020e-01  -2.1379353210471860e-01  -2.2804512127127036e-01  -2.4260277790229068e-01  -2.5748203782747520e-01  -2.7269626096276545e-01  -2.8825566522142748e-01  -3.0416615983680900e-01  -3.2042814136560688e-01  3.2107848968634795e-01  3.0483718497983847e-01  2.8892217532751047e-01  2.7333415107373510e-01  2.5806941705156605e-01  2.4312064793776247e-01  2.2847768700268745e-01  2.1412827545808388e-01  2.0005866201858852e-01  1.8625408391749654e-01  1.7269913093002118e-01  1.5937800920889919e-01  1.4627471779686305e-01  1.3337314094750297e-01  1.2065704512701818e-01  1.0810995142531003e-01  9.5714835069987417e-02  8.3453595103219050e-02  7.1306268933019890e-02  5.9250097447355363e-02  4.7258851496326568e-02  3.5303300026330850e-02  2.3353989600584015e-02  1.1386720345481606e-02  -6.1154927478959979e-04  -1.2641381392256344e-02  -2.4696299266961479e-02  -3.6771152901555082e-02  -4.8867840174427579e-02  -6.0996410486628010e-02  -7.3173213243415094e-02  -8.5418288276908949e-02  -9.7753229738843206e-02  -1.1019984119697473e-01  -1.2277945268603482e-01  -1.3551266156710728e-01  -1.4841929557758940e-01  -1.6151846437696327e-01  -1.7482862142536590e-01  -1.8836759286291310e-01  -2.0215254808658317e-01  -2.1619989382720681e-01  -2.3052507461131852e-01  -2.4514226152167623e-01  -2.6006391222314940e-01  -2.7530019360683056e-01  -2.9085828100310840e-01  -3.0674159099303971e-01  -3.2294906673913248e-01  3.2306759611770547e-01  3.0686505534756076e-01  2.9096555600880453e-01  2.7537070900793326e-01  2.6007844023614313e-01  2.4508346750275353e-01  2.3037784719026116e-01  2.1595151545205377e-01  2.0179277913316213e-01  1.8788873725841762e-01  1.7422563036762029e-01  1.6078912252819794e-01  1.4756452111005824e-01  1.3453693311467685e-01  1.2169134299474531e-01  1.0901257258973422e-01  9.6485045745412987e-02  8.4092231003735599e-02  7.1815602835101425e-02  5.9633039514827360e-02  4.7516979652960943e-02  3.5433668527103758e-02  2.3346235582098959e-02  1.1224168885018907e-02  -9.4396716804855064e-04  -1.3147499886616364e-02  -2.5365741807955488e-02  -3.7584597058521976e-02  -4.9804887727204129e-02  -6.2040721134688726e-02  -7.4314028618137684e-02  -8.6649730895181090e-02  -9.9072817353320644e-02  -1.1160702918337155e-01  -1.2427449340801314e-01  -1.3709579780353681e-01  -1.5009020930644776e-01  -1.6327589120205491e-01  -1.7667005939999791e-01  -1.9028905785419159e-01  -2.0414834836000934e-01  -2.1826241363369692e-01  -2.3264457203559583e-01  -2.4730670173953784e-01  -2.6225887460762620e-01  -2.7750890831193548e-01  -2.9306186177426247e-01  -3.0891952413932705e-01  -3.2507997621931717e-01  3.2470802467224713e-01  3.0853784476518181e-01  2.9265225621998031e-01  2.7705342201113514e-01  2.6174031953611254e-01  2.4670905397418647e-01  2.3195324152953181e-01  2.1746441423943505e-01  2.0323241222549901e-01  1.8924574420231949e-01  1.7549190888885338e-01  1.6195767743388428e-01  1.4862933986458887e-01  1.3549291625681550e-01  1.2253432325026296e-01  1.0973946233242012e-01  9.7094145507684859e-02  8.4583677690793613e-02  7.2191762154442188e-02  5.9898249557131591e-02  4.7675455285065955e-02  3.5484283373064293e-02  2.3275429101428845e-02  1.1005032264603202e-02  -1.3358488319584363e-03  -1.3714345070864222e-02  -2.6084548694181944e-02  -3.8421256223261695e-02  -5.0729628221606260e-02  -6.3034367547577991e-02  -7.5367297410285028e-02  -8.7760071706246376e-02  -1.0024135163720985e-01  -1.1283636862950638e-01  -1.2556740057039117e-01  -1.3845443115629988e-01  -1.5151571387392501e-01  -1.6476817058563434e-01  -1.7822763133959177e-01  -1.9190894117248802e-01  -2.0582595815558449e-01  -2.1999146030300390e-01  -2.3441697309551213e-01  -2.4911252643704324e-01  -2.6408635085507676e-01  -2.7934452831283646e-01  -2.9489062317431791e-01  -3.1072533220165099e-01  -3.2684620478925469e-01  3.2602204848727373e-01  3.0987800740273808e-01  2.9400418570694498e-01  2.7840307781598789e-01  2.6307434262803714e-01  2.4801501811839469e-01  2.3321979814430613e-01  2.1868134031759737e-01  2.0439058020007403e-01  1.9033703561179338e-01  1.7650909309665158e-01  1.6289427538612558e-01  1.4947949360135351e-01  1.3625129038519446e-01  1.2319607812569472e-01  1.1030036359283817e-01  9.7550909689216259e-02  8.4934675663098272e-02  7.2438113804249291e-02  6.0044862770609046e-02  4.7730160854291916e-02  3.5450928446490108e-02  2.3138062726106058e-02  1.0717907477865905e-02  -1.8138680414257319e-03  -1.4378337522167007e-02  -2.6884816024904851e-02  -3.9298916038738994e-02  -5.1645169700249093e-02  -6.3970396754563952e-02  -7.6321066861404219e-02  -8.8736032647887458e-02  -1.0124638139073577e-01  -1.1387729757022858e-01  -1.2664992807577929e-01  -1.3958274269165483e-01  -1.5269240310294893e-01  -1.6599426820190941e-01  -1.7950265196241141e-01  -1.9323091499886086e-01  -2.0719144100133485e-01  -2.2139552916735825e-01  -2.3585322204337894e-01  -2.5057308274732354e-01  -2.6556193486096852e-01  -2.8082458132507154e-01  -2.9636352436834174e-01  -3.1217871512675271e-01  -3.2826736635494741e-01  3.2702700666673806e-01  3.1090306935724743e-01  2.9503857332084688e-01  2.7943620877993919e-01  2.6409606883741610e-01  2.4901580347398170e-01  2.3419082701343077e-01  2.1961455821198697e-01  2.0527867473752751e-01  1.9117336857541037e-01  1.7728759449284887e-01  1.6360930939407534e-01  1.5012570609920661e-01  1.3682345108019792e-01  1.2368894217405600e-01  1.1070860774223137e-01  9.7869264445460527e-02  8.5158502430093944e-02  7.2564855957282196e-02  6.0076780293972017e-02  4.7677299795170207e-02  3.5326939194942723e-02  2.2930539436417843e-02  1.0345186594604726e-02  -2.4209122177641204e-03  -1.5192908949401082e-02  -2.7803910942349720e-02  -4.0225747647894529e-02  -5.2538133548100954e-02  -6.4825594507196813e-02  -7.7150463419213916e-02  -8.9555175843014326e-02  -1.0206937202963631e-01  -1.1471535222100890e-01  -1.2751134500234665e-01  -1.4047327984086577e-01  -1.5361569240846271e-01  -1.6695215143864797e-01  -1.8049542088305012e-01  -1.9425747013079622e-01  -2.0824939132232578e-01  -2.2248125536308480e-01  -2.3696192500652716e-01  -2.5169883797886367e-01  -2.6669777229860642e-01  -2.8196260787966171e-01  -2.9749510184363354e-01  -3.1329469826319556e-01  -3.2935839458639066e-01  3.2773590086231252e-01  3.1162619712599726e-01  2.9576843192463692e-01  2.8016540629988751e-01  2.6481747731321847e-01  2.4972267552012384e-01  2.3487686866407811e-01  2.2027395650582135e-01  2.0590608239078273e-01  1.9176384963090234e-01  1.7783653427663201e-01  1.6411228991862192e-01  1.5057834479823365e-01  1.3722119737898009e-01  1.2402682526477357e-01  1.1098093714216813e-01  9.8069323550418530e-02  8.5278403904372538e-02  7.2596098319488822e-02  6.0012942196548687e-02  4.7521543118070046e-02  3.5102386779655409e-02  2.2648371094811347e-02  9.8591748133006803e-03  -3.2122408439398602e-03  -1.6216108428835311e-02  -2.8863915486137422e-02  -4.1174140050606350e-02  -5.3359448652747499e-02  -6.5550345766636917e-02  -7.7813834580649999e-02  -9.0185304602674043e-02  -1.0268643284308344e-01  -1.1533324389849485e-01  -1.2813945003890875e-01  -1.4111777330439126e-01  -1.5428042244011630e-01  -1.6763920869663779e-01  -1.8120549985478607e-01  -1.9499009578861107e-01  -2.0900306126491600e-01  -2.2325353227937650e-01  -2.3774950495496217e-01  -2.5249761429946266e-01  -2.6750291109863850e-01  -2.8276864749116709e-01  -2.9829608435384153e-01  -3.1408433558466253e-01  -3.3013026474036206e-01  3.2815778217900343e-01  3.1205656849430724e-01  2.9620286636362658e-01  2.8059953272009241e-01  2.6524706588921415e-01  2.5014370338134601e-01  2.3528556123524552e-01  2.2066680266317518e-01  2.0627982347474819e-01  1.9211544290244026e-01  1.7816309046436229e-01  1.6441098190971953e-01  1.5084627984358243e-01  1.3745523740032303e-01  1.2422332699491194e-01  1.1113536269253513e-01  9.8175639488360403e-02  8.5328150975409883e-02  7.2577052087244007e-02  5.9907820913338156e-02  4.7310181226163352e-02  3.4782387050861320e-02  2.2275518482948842e-02  9.2408277603476564e-03  -4.1601710259520988e-03  -1.7417420758275268e-02  -3.0004418592681908e-02  -4.2026603052112747e-02  -5.3999009198367316e-02  -6.6062165103074125e-02  -7.8254232780510399e-02  -9.0588041365945698e-02  -1.0307174103143292e-01  -1.1571353618784347e-01  -1.2852250110002336e-01  -1.4150847354561821e-01  -1.5468176356899863e-01  -1.6805285196475048e-01  -1.8163211119548037e-01  -1.9542954716798955e-01  -2.0945455430461349e-01  -2.2371567776328183e-01  -2.3822037989156844e-01  -2.5297481158012697e-01  -2.6798359270595540e-01  -2.8324960909761793e-01  -2.9877383609765240e-01  -3.1455520039897628e-01  -3.3059049190616152e-01  3.2829799113510971e-01  3.1219960317737006e-01  2.9634726600552658e-01  2.8074385359662873e-01  2.6538990895313347e-01  2.5028373568283724e-01  2.3542152954823276e-01  2.2079753859213536e-01  2.0640423988124468e-01  1.9223252162220589e-01  1.7827186088969257e-01  1.6451048895805534e-01  1.5093553782710703e-01  1.3753316266646312e-01  1.2428863536113305e-01  1.1118640406094160e-01  9.8210113100761262e-02  8.5342580112623731e-02  7.2565750654453920e-02  5.9860797189587776e-02  4.7209402873868198e-02  3.4602436836336632e-02  2.2076058765525701e-02  8.7074747530058172e-03  -4.7267134843290686e-03  -1.8092361958199122e-02  -3.0898065086699508e-02  -4.2490766501376127e-02  -5.4275686521946552e-02  -6.62