<?xml version="1.0"?>
<VTKFile type="UnstructuredGrid"  version="0.1"  >
<UnstructuredGrid>
<Piece  NumberOfPoints="1617" NumberOfCells="3072">
<Points>
<DataArray  type="Float64"  NumberOfComponents="3"  format="ascii">0 0 0  0.03125 0 0  0.0625 0 0  0.09375 0 0  0.125 0 0  0.15625 0 0  0.1875 0 0  0.21875 0 0  0.25 0 0  0.28125 0 0  0.3125 0 0  0.34375 0 0  0.375 0 0  0.40625 0 0  0.4375 0 0  0.46875 0 0  0.5 0 0  0.53125 0 0  0.5625 0 0  0.59375 0 0  0.625 0 0  0.65625 0 0  0.6875 0 0  0.71875 0 0  0.75 0 0  0.78125 0 0  0.8125 0 0  0.84375 0 0  0.875 0 0  0.90625 0 0  0.9375 0 0  0.96875 0 0  1 0 0  1.03125 0 0  1.0625 0 0  1.09375 0 0  1.125 0 0  1.15625 0 0  1.1875 0 0  1.21875 0 0  1.25 0 0  1.28125 0 0  1.3125 0 0  1.34375 0 0  1.375 0 0  1.40625 0 0  1.4375 0 0  1.46875 0 0  1.5 0 0  0 0.03125 0  0.03125 0.03125 0  0.0625 0.03125 0  0.09375 0.03125 0  0.125 0.03125 0  0.15625 0.03125 0  0.1875 0.03125 0  0.21875 0.03125 0  0.25 0.03125 0  0.28125 0.03125 0  0.3125 0.03125 0  0.34375 0.03125 0  0.375 0.03125 0  0.40625 0.03125 0  0.4375 0.03125 0  0.46875 0.03125 0  0.5 0.03125 0  0.53125 0.03125 0  0.5625 0.03125 0  0.59375 0.03125 0  0.625 0.03125 0  0.65625 0.03125 0  0.6875 0.03125 0  0.71875 0.03125 0  0.75 0.03125 0  0.78125 0.03125 0  0.8125 0.03125 0  0.84375 0.03125 0  0.875 0.03125 0  0.90625 0.03125 0  0.9375 0.03125 0  0.96875 0.03125 0  1 0.03125 0  1.03125 0.03125 0  1.0625 0.03125 0  1.09375 0.03125 0  1.125 0.03125 0  1.15625 0.03125 0  1.1875 0.03125 0  1.21875 0.03125 0  1.25 0.03125 0  1.28125 0.03125 0  1.3125 0.03125 0  1.34375 0.03125 0  1.375 0.03125 0  1.40625 0.03125 0  1.4375 0.03125 0  1.46875 0.03125 0  1.5 0.03125 0  0 0.0625 0  0.03125 0.0625 0  0.0625 0.0625 0  0.09375 0.0625 0  0.125 0.0625 0  0.15625 0.0625 0  0.1875 0.0625 0  0.21875 0.0625 0  0.25 0.0625 0  0.28125 0.0625 0  0.3125 0.0625 0  0.34375 0.0625 0  0.375 0.0625 0  0.40625 0.0625 0  0.4375 0.0625 0  0.46875 0.0625 0  0.5 0.0625 0  0.53125 0.0625 0  0.5625 0.0625 0  0.59375 0.0625 0  0.625 0.0625 0  0.65625 0.0625 0  0.6875 0.0625 0  0.71875 0.0625 0  0.75 0.0625 0  0.78125 0.0625 0  0.8125 0.0625 0  0.84375 0.0625 0  0.875 0.0625 0  0.90625 0.0625 0  0.9375 0.0625 0  0.96875 0.0625 0  1 0.0625 0  1.03125 0.0625 0  1.0625 0.0625 0  1.09375 0.0625 0  1.125 0.0625 0  1.15625 0.0625 0  1.1875 0.0625 0  1.21875 0.0625 0  1.25 0.0625 0  1.28125 0.0625 0  1.3125 0.0625 0  1.34375 0.0625 0  1.375 0.0625 0  1.40625 0.0625 0  1.4375 0.0625 0  1.46875 0.0625 0  1.5 0.0625 0  0 0.09375 0  0.03125 0.09375 0  0.0625 0.09375 0  0.09375 0.09375 0  0.125 0.09375 0  0.15625 0.09375 0  0.1875 0.09375 0  0.21875 0.09375 0  0.25 0.09375 0  0.28125 0.09375 0  0.3125 0.09375 0  0.34375 0.09375 0  0.375 0.09375 0  0.40625 0.09375 0  0.4375 0.09375 0  0.46875 0.09375 0  0.5 0.09375 0  0.53125 0.09375 0  0.5625 0.09375 0  0.59375 0.09375 0  0.625 0.09375 0  0.65625 0.09375 0  0.6875 0.09375 0  0.71875 0.09375 0  0.75 0.09375 0  0.78125 0.09375 0  0.8125 0.09375 0  0.84375 0.09375 0  0.875 0.09375 0  0.90625 0.09375 0  0.9375 0.09375 0  0.96875 0.09375 0  1 0.09375 0  1.03125 0.09375 0  1.0625 0.09375 0  1.09375 0.09375 0  1.125 0.09375 0  1.15625 0.09375 0  1.1875 0.09375 0  1.21875 0.09375 0  1.25 0.09375 0  1.28125 0.09375 0  1.3125 0.09375 0  1.34375 0.09375 0  1.375 0.09375 0  1.40625 0.09375 0  1.4375 0.09375 0  1.46875 0.09375 0  1.5 0.09375 0  0 0.125 0  0.03125 0.125 0  0.0625 0.125 0  0.09375 0.125 0  0.125 0.125 0  0.15625 0.125 0  0.1875 0.125 0  0.21875 0.125 0  0.25 0.125 0  0.28125 0.125 0  0.3125 0.125 0  0.34375 0.125 0  0.375 0.125 0  0.40625 0.125 0  0.4375 0.125 0  0.46875 0.125 0  0.5 0.125 0  0.53125 0.125 0  0.5625 0.125 0  0.59375 0.125 0  0.625 0.125 0  0.65625 0.125 0  0.6875 0.125 0  0.71875 0.125 0  0.75 0.125 0  0.78125 0.125 0  0.8125 0.125 0  0.84375 0.125 0  0.875 0.125 0  0.90625 0.125 0  0.9375 0.125 0  0.96875 0.125 0  1 0.125 0  1.03125 0.125 0  1.0625 0.125 0  1.09375 0.125 0  1.125 0.125 0  1.15625 0.125 0  1.1875 0.125 0  1.21875 0.125 0  1.25 0.125 0  1.28125 0.125 0  1.3125 0.125 0  1.34375 0.125 0  1.375 0.125 0  1.40625 0.125 0  1.4375 0.125 0  1.46875 0.125 0  1.5 0.125 0  0 0.15625 0  0.03125 0.15625 0  0.0625 0.15625 0  0.09375 0.15625 0  0.125 0.15625 0  0.15625 0.15625 0  0.1875 0.15625 0  0.21875 0.15625 0  0.25 0.15625 0  0.28125 0.15625 0  0.3125 0.15625 0  0.34375 0.15625 0  0.375 0.15625 0  0.40625 0.15625 0  0.4375 0.15625 0  0.46875 0.15625 0  0.5 0.15625 0  0.53125 0.15625 0  0.5625 0.15625 0  0.59375 0.15625 0  0.625 0.15625 0  0.65625 0.15625 0  0.6875 0.15625 0  0.71875 0.15625 0  0.75 0.15625 0  0.78125 0.15625 0  0.8125 0.15625 0  0.84375 0.15625 0  0.875 0.15625 0  0.90625 0.15625 0  0.9375 0.15625 0  0.96875 0.15625 0  1 0.15625 0  1.03125 0.15625 0  1.0625 0.15625 0  1.09375 0.15625 0  1.125 0.15625 0  1.15625 0.15625 0  1.1875 0.15625 0  1.21875 0.15625 0  1.25 0.15625 0  1.28125 0.15625 0  1.3125 0.15625 0  1.34375 0.15625 0  1.375 0.15625 0  1.40625 0.15625 0  1.4375 0.15625 0  1.46875 0.15625 0  1.5 0.15625 0  0 0.1875 0  0.03125 0.1875 0  0.0625 0.1875 0  0.09375 0.1875 0  0.125 0.1875 0  0.15625 0.1875 0  0.1875 0.1875 0  0.21875 0.1875 0  0.25 0.1875 0  0.28125 0.1875 0  0.3125 0.1875 0  0.34375 0.1875 0  0.375 0.1875 0  0.40625 0.1875 0  0.4375 0.1875 0  0.46875 0.1875 0  0.5 0.1875 0  0.53125 0.1875 0  0.5625 0.1875 0  0.59375 0.1875 0  0.625 0.1875 0  0.65625 0.1875 0  0.6875 0.1875 0  0.71875 0.1875 0  0.75 0.1875 0  0.78125 0.1875 0  0.8125 0.1875 0  0.84375 0.1875 0  0.875 0.1875 0  0.90625 0.1875 0  0.9375 0.1875 0  0.96875 0.1875 0  1 0.1875 0  1.03125 0.1875 0  1.0625 0.1875 0  1.09375 0.1875 0  1.125 0.1875 0  1.15625 0.1875 0  1.1875 0.1875 0  1.21875 0.1875 0  1.25 0.1875 0  1.28125 0.1875 0  1.3125 0.1875 0  1.34375 0.1875 0  1.375 0.1875 0  1.40625 0.1875 0  1.4375 0.1875 0  1.46875 0.1875 0  1.5 0.1875 0  0 0.21875 0  0.03125 0.21875 0  0.0625 0.21875 0  0.09375 0.21875 0  0.125 0.21875 0  0.15625 0.21875 0  0.1875 0.21875 0  0.21875 0.21875 0  0.25 0.21875 0  0.28125 0.21875 0  0.3125 0.21875 0  0.34375 0.21875 0  0.375 0.21875 0  0.40625 0.21875 0  0.4375 0.21875 0  0.46875 0.21875 0  0.5 0.21875 0  0.53125 0.21875 0  0.5625 0.21875 0  0.59375 0.21875 0  0.625 0.21875 0  0.65625 0.21875 0  0.6875 0.21875 0  0.71875 0.21875 0  0.75 0.21875 0  0.78125 0.21875 0  0.8125 0.21875 0  0.84375 0.21875 0  0.875 0.21875 0  0.90625 0.21875 0  0.9375 0.21875 0  0.96875 0.21875 0  1 0.21875 0  1.03125 0.21875 0  1.0625 0.21875 0  1.09375 0.21875 0  1.125 0.21875 0  1.15625 0.21875 0  1.1875 0.21875 0  1.21875 0.21875 0  1.25 0.21875 0  1.28125 0.21875 0  1.3125 0.21875 0  1.34375 0.21875 0  1.375 0.21875 0  1.40625 0.21875 0  1.4375 0.21875 0  1.46875 0.21875 0  1.5 0.21875 0  0 0.25 0  0.03125 0.25 0  0.0625 0.25 0  0.09375 0.25 0  0.125 0.25 0  0.15625 0.25 0  0.1875 0.25 0  0.21875 0.25 0  0.25 0.25 0  0.28125 0.25 0  0.3125 0.25 0  0.34375 0.25 0  0.375 0.25 0  0.40625 0.25 0  0.4375 0.25 0  0.46875 0.25 0  0.5 0.25 0  0.53125 0.25 0  0.5625 0.25 0  0.59375 0.25 0  0.625 0.25 0  0.65625 0.25 0  0.6875 0.25 0  0.71875 0.25 0  0.75 0.25 0  0.78125 0.25 0  0.8125 0.25 0  0.84375 0.25 0  0.875 0.25 0  0.90625 0.25 0  0.9375 0.25 0  0.96875 0.25 0  1 0.25 0  1.03125 0.25 0  1.0625 0.25 0  1.09375 0.25 0  1.125 0.25 0  1.15625 0.25 0  1.1875 0.25 0  1.21875 0.25 0  1.25 0.25 0  1.28125 0.25 0  1.3125 0.25 0  1.34375 0.25 0  1.375 0.25 0  1.40625 0.25 0  1.4375 0.25 0  1.46875 0.25 0  1.5 0.25 0  0 0.28125 0  0.03125 0.28125 0  0.0625 0.28125 0  0.09375 0.28125 0  0.125 0.28125 0  0.15625 0.28125 0  0.1875 0.28125 0  0.21875 0.28125 0  0.25 0.28125 0  0.28125 0.28125 0  0.3125 0.28125 0  0.34375 0.28125 0  0.375 0.28125 0  0.40625 0.28125 0  0.4375 0.28125 0  0.46875 0.28125 0  0.5 0.28125 0  0.53125 0.28125 0  0.5625 0.28125 0  0.59375 0.28125 0  0.625 0.28125 0  0.65625 0.28125 0  0.6875 0.28125 0  0.71875 0.28125 0  0.75 0.28125 0  0.78125 0.28125 0  0.8125 0.28125 0  0.84375 0.28125 0  0.875 0.28125 0  0.90625 0.28125 0  0.9375 0.28125 0  0.96875 0.28125 0  1 0.28125 0  1.03125 0.28125 0  1.0625 0.28125 0  1.09375 0.28125 0  1.125 0.28125 0  1.15625 0.28125 0  1.1875 0.28125 0  1.21875 0.28125 0  1.25 0.28125 0  1.28125 0.28125 0  1.3125 0.28125 0  1.34375 0.28125 0  1.375 0.28125 0  1.40625 0.28125 0  1.4375 0.28125 0  1.46875 0.28125 0  1.5 0.28125 0  0 0.3125 0  0.03125 0.3125 0  0.0625 0.3125 0  0.09375 0.3125 0  0.125 0.3125 0  0.15625 0.3125 0  0.1875 0.3125 0  0.21875 0.3125 0  0.25 0.3125 0  0.28125 0.3125 0  0.3125 0.3125 0  0.34375 0.3125 0  0.375 0.3125 0  0.40625 0.3125 0  0.4375 0.3125 0  0.46875 0.3125 0  0.5 0.3125 0  0.53125 0.3125 0  0.5625 0.3125 0  0.59375 0.3125 0  0.625 0.3125 0  0.65625 0.3125 0  0.6875 0.3125 0  0.71875 0.3125 0  0.75 0.3125 0  0.78125 0.3125 0  0.8125 0.3125 0  0.84375 0.3125 0  0.875 0.3125 0  0.90625 0.3125 0  0.9375 0.3125 0  0.96875 0.3125 0  1 0.3125 0  1.03125 0.3125 0  1.0625 0.3125 0  1.09375 0.3125 0  1.125 0.3125 0  1.15625 0.3125 0  1.1875 0.3125 0  1.21875 0.3125 0  1.25 0.3125 0  1.28125 0.3125 0  1.3125 0.3125 0  1.34375 0.3125 0  1.375 0.3125 0  1.40625 0.3125 0  1.4375 0.3125 0  1.46875 0.3125 0  1.5 0.3125 0  0 0.34375 0  0.03125 0.34375 0  0.0625 0.34375 0  0.09375 0.34375 0  0.125 0.34375 0  0.15625 0.34375 0  0.1875 0.34375 0  0.21875 0.34375 0  0.25 0.34375 0  0.28125 0.34375 0  0.3125 0.34375 0  0.34375 0.34375 0  0.375 0.34375 0  0.40625 0.34375 0  0.4375 0.34375 0  0.46875 0.34375 0  0.5 0.34375 0  0.53125 0.34375 0  0.5625 0.34375 0  0.59375 0.34375 0  0.625 0.34375 0  0.65625 0.34375 0  0.6875 0.34375 0  0.71875 0.34375 0  0.75 0.34375 0  0.78125 0.34375 0  0.8125 0.34375 0  0.84375 0.34375 0  0.875 0.34375 0  0.90625 0.34375 0  0.9375 0.34375 0  0.96875 0.34375 0  1 0.34375 0  1.03125 0.34375 0  1.0625 0.34375 0  1.09375 0.34375 0  1.125 0.34375 0  1.15625 0.34375 0  1.1875 0.34375 0  1.21875 0.34375 0  1.25 0.34375 0  1.28125 0.34375 0  1.3125 0.34375 0  1.34375 0.34375 0  1.375 0.34375 0  1
[...]
<PointData  Scalars="f_49"> 
<DataArray  type="Float64"  Name="f_49"  format="ascii">1.4439714825735703e-01  1.4000293079630863e-01  1.3337766848620253e-01  1.2668912034095436e-01  1.2022487755591436e-01  1.1389425510269931e-01  1.0767295825536684e-01  1.0154043276397397e-01  9.5477813704954215e-02  8.9469618044295512e-02  8.3503643499451441e-02  7.7570590963023683e-02  7.1663456855894855e-02  6.5776843778200075e-02  5.9906332612583123e-02  5.4047999089083566e-02  4.8198098324877814e-02  4.2352903682809258e-02  3.6508670672908167e-02  3.0661694346649178e-02  2.4808430927328536e-02  1.8945655938370148e-02  1.3070630584483607e-02  7.1812473489412543e-03  1.2761276462562650e-03  -4.6453487908276244e-03  -1.0583091147795303e-02  -1.6536415104127448e-02  -2.2504211275116884e-02  -2.8485137232477781e-02  -3.4477805389970563e-02  -4.0480945616803626e-02  -4.6493533159720414e-02  -5.2514887135995898e-02  -5.8544761459607075e-02  -6.4583465721634092e-02  -7.0632069787764304e-02  -7.6692739730861798e-02  -8.2769262625135148e-02  -8.8867689090548443e-02  -9.4997142361034792e-02  -1.0117028855184051e-01  -1.0740336479606355e-01  -1.1372221851816067e-01  -1.2012901015202826e-01  -1.2665002953549481e-01  -1.3387129567454814e-01  -1.4092719539011200e-01  -1.4402468446234382e-01  1.4547853684175494e-01  1.4150424522884134e-01  1.3465603671790016e-01  1.2777086375926011e-01  1.2121869014982112e-01  1.1481562773006759e-01  1.0852383425845771e-01  1.0232538472001114e-01  9.6200406972970276e-02  9.0132292794436492e-02  8.4107902764477549e-02  7.8117229636338423e-02  7.2152793627035097e-02  6.6208920357972281e-02  6.0281064456132474e-02  5.4365279243324301e-02  4.8457863765916896e-02  4.2555175323900650e-02  3.6653576595105347e-02  3.0749483146532190e-02  2.4839479657574437e-02  1.8920475185933046e-02  1.2989867510888950e-02  7.0456857751249272e-03  1.0866826839685190e-03  -4.8876448564306807e-03  -1.0877114367293239e-02  -1.6880987181074916e-02  -2.2898146045741818e-02  -2.8927291082256484e-02  -3.4967125475129944e-02  -4.1016511011938664e-02  -4.7074587164561664e-02  -5.3140863225247151e-02  -5.9215309887187172e-02  -6.5298492112477638e-02  -7.1391799413984214e-02  -7.7497823868768884e-02  -8.3620935247956066e-02  -8.9767993728138623e-02  -9.5949218255927740e-02  -1.0217874870096375e-01  -1.0847541933243159e-01  -1.1486498961076615e-01  -1.2136674990436697e-01  -1.2799595656690951e-01  -1.3517247852461828e-01  -1.4214599077911494e-01  -1.4607319678330460e-01  1.4631084359936200e-01  1.4231378946382087e-01  1.3538782639514452e-01  1.2835955674480060e-01  1.2175339818119120e-01  1.1530088827667929e-01  1.0895765095234748e-01  1.0271309171420301e-01  9.6546032638380144e-02  9.0438624432338049e-02  8.4376814113782991e-02  7.8349898773572985e-02  7.2349925630808581e-02  6.6370939761032255e-02  6.0408258133891182e-02  5.4457887396808416e-02  4.8516126495855717e-02  4.2579346243713789e-02  3.6643915872410102e-02  3.0706242399950321e-02  2.4762890883509445e-02  1.8810754573119388e-02  1.2847241262669425e-02  6.8704382413093106e-03  8.7921833669825952e-04  -5.1267416535009346e-03  -1.1147040484008157e-02  -1.7180717142113670e-02  -2.3226468434509557e-02  -2.9282878742458614e-02  -3.5348625801576723e-02  -4.1422640826180461e-02  -4.7504220256073072e-02  -5.3593105545544653e-02  -5.9689565178111408e-02  -6.5794527600858924e-02  -7.1909825474263431e-02  -7.8038602620331549e-02  -8.4185928732408460e-02  -9.0359552226744813e-02  -9.6570796274128304e-02  -1.0283508439875613e-01  -1.0917262419141757e-01  -1.1561007283846063e-01  -1.2216358698168495e-01  -1.2885409209593657e-01  -1.3604409860973046e-01  -1.4301569016607543e-01  -1.4698974826597749e-01  1.4700908105314817e-01  1.4302542333958407e-01  1.3610873734916834e-01  1.2899285093012916e-01  1.2234157292978828e-01  1.1583511038953576e-01  1.0943779700279928e-01  1.0314462204838572e-01  9.6932348001962390e-02  9.0782342906464600e-02  8.4679946978424958e-02  7.8613897946614497e-02  7.2575832590751094e-02  6.6559536515434808e-02  6.0560183852854430e-02  5.4573707694988878e-02  4.8596356689881617e-02  4.2624437005625689e-02  3.6654214452463148e-02  3.0681946590281818e-02  2.4704016212266894e-02  1.8717135772899251e-02  1.2718583750209112e-02  6.7064224065405079e-03  6.7964089450069803e-04  -5.3618222156674349e-03  -1.1417194248074913e-02  -1.7485100374510652e-02  -2.3563859558444103e-02  -2.9651781157107312e-02  -3.5747410980190436e-02  -4.1849701842875030e-02  -4.7958112534167353e-02  -5.4072663207527481e-02  -6.0193993073919774e-02  -6.6323477652547105e-02  -7.2463469837770217e-02  -7.8617713626110960e-02  -8.4791966647291717e-02  -9.0994740428877813e-02  -9.7238135300245346e-02  -1.0353819600231164e-01  -1.0991523322492991e-01  -1.1639492190405604e-01  -1.2298949919556754e-01  -1.2971223752220307e-01  -1.3691879500471976e-01  -1.4388483357286039e-01  -1.4788101640247567e-01  1.4760281297648020e-01  1.4362596094270855e-01  1.3670431690565465e-01  1.2954495902333502e-01  1.2285979523988676e-01  1.1630582166746146e-01  1.0986242512885699e-01  1.0352573381327392e-01  9.7271620678609325e-02  9.1081683723282847e-02  8.4941065405169894e-02  7.8838175730638033e-02  7.2764390893258452e-02  6.6713324005167288e-02  6.0680050769390717e-02  5.4660444368654866e-02  4.8650689042006798e-02  4.2646980968802609e-02  3.6645400258673910e-02  3.0641933266017801e-02  2.4632626149809267e-02  1.8613844674645635e-02  1.2582596095119778e-02  6.5368418828542904e-03  4.7571102644734125e-04  -5.6004661570799030e-03  -1.1690335251034136e-02  -1.7791867680212854e-02  -2.3902790037755223e-02  -3.0020987241222298e-02  -3.6144804052821645e-02  -4.2273219145972242e-02  -4.8405911085756273e-02  -5.4543264802805955e-02  -6.0686381662262610e-02  -6.6837160345634264e-02  -7.2998514806143930e-02  -7.9174772467169863e-02  -8.5372275501612097e-02  -9.1600073253654934e-02  -9.7870652608115075e-02  -1.0420009893167682e-01  -1.1060811679693845e-01  -1.1711862220472119e-01  -1.2374087419236721e-01  -1.3048309235233263e-01  -1.3769704092117263e-01  -1.4465587861478926e-01  -1.4864326264924060e-01  1.4810543857878447e-01  1.4413253913538335e-01  1.3720888295061942e-01  1.3002840580252684e-01  1.2331585172952580e-01  1.1672393966588586e-01  1.1024270818141199e-01  1.0386750223895265e-01  9.7575213653711579e-02  9.1348164295188869e-02  8.5171555517086092e-02  7.9033727268438991e-02  7.2925990797040249e-02  6.6841918643729292e-02  6.0776577152766839e-02  5.4725837305952395e-02  4.8685847291783130e-02  4.2652685943489754e-02  3.6622193047534453e-02  3.0589971562786020e-02  2.4551562469313944e-02  1.8502783286172175e-02  1.2440185889578197e-02  6.3615321286015162e-03  2.6613484240306593e-04  -5.8450839414454624e-03  -1.1969879077167185e-02  -1.8105238279764402e-02  -2.4248032309959758e-02  -3.0395576068500588e-02  -3.6545990768450359e-02  -4.2698352904223101e-02  -4.8852685022631848e-02  -5.5009873264796678e-02  -6.1171599197840411e-02  -6.7340363247874582e-02  -7.3519664628469747e-02  -7.9714371557299449e-02  -8.5931290193653059e-02  -9.2179801573403525e-02  -9.8472497742243467e-02  -1.0482518782827258e-01  -1.1125675085055137e-01  -1.1778946535759409e-01  -1.2443028674814705e-01  -1.3118445894348255e-01  -1.3840098638588189e-01  -1.4535033377257148e-01  -1.4932979401417928e-01  1.4853162518203306e-01  1.4456162408661297e-01  1.3763725373979102e-01  1.3044240335820242e-01  1.2370736179589778e-01  1.1708606749252184e-01  1.1057338959899690e-01  1.0416455653488535e-01  9.7838230798998810e-02  9.1577362348452165e-02  8.5367404876717970e-02  7.9196855608759914e-02  7.3057132313429793e-02  6.6941899472437658e-02  6.0846323388478118e-02  5.4766363850191659e-02  4.8698203556121610e-02  4.2637841559453507e-02  3.6580859221753109e-02  3.0522376366011437e-02  2.4457234198476303e-02  1.8380433345117696e-02  1.2287800517873771e-02  6.1767435504768500e-03  4.6828673775639482e-05  -6.1001095253968851e-03  -1.2260453030444176e-02  -1.8429726182329131e-02  -2.4603613032655094e-02  -3.0778739450808775e-02  -3.6953072696884248e-02  -4.3125974255780804e-02  -4.9298038570362510e-02  -5.5470863360682063e-02  -6.1646869165201346e-02  -6.7829250583299749e-02  -7.4022115091855994e-02  -8.0230828241020444e-02  -8.6462557688383124e-02  -9.2726870238281273e-02  -9.9036304439601125e-02  -1.0540628408557610e-01  -1.1185488996839088e-01  -1.1840308484458913e-01  -1.2505618123408344e-01  -1.3181745530974220e-01  -1.3903371323998903e-01  -1.4597300079344266e-01  -1.4994401010655647e-01  1.4889267874191231e-01  1.4492476024503934e-01  1.3799971877487102e-01  1.3079343564474155e-01  1.2404020435642088e-01  1.1739535092932364e-01  1.1085592906538640e-01  1.0441790273475397e-01  9.8061395533089998e-02  9.1769845244083825e-02  8.5529113294717282e-02  7.9327982745489245e-02  7.3158088704431440e-02  6.7013298362862087e-02  6.0888990191023160e-02  5.4781327392290864e-02  4.8686641004044434e-02  4.2600944946803200e-02  3.6519600040074186e-02  3.0437171648981708e-02  2.4347575373379955e-02  1.8244616578432279e-02  1.2122967847778058e-02  5.9794104901259651e-03  -1.8613416279567423e-04  -6.3703805973087417e-03  -1.2567546994923358e-02  -1.8770973322225024e-02  -2.4974755583767435e-02  -3.1174806007263488e-02  -3.7369190732797146e-02  -4.3557934158076191e-02  -4.9742578758304158e-02  -5.5925734646435930e-02  -6.2110760228386477e-02  -6.8301643727103456e-02  -7.4503116716994791e-02  -8.0720994536574206e-02  -8.6962717516444826e-02  -9.3237934450779852e-02  -9.9559046330943285e-02  -1.0594107502568910e-01  -1.1240140760199271e-01  -1.1895997623062940e-01  -1.2562088795890947e-01  -1.3238600469489289e-01  -1.3960027004088513e-01  -1.4652974750468611e-01  -1.5049297871742445e-01  1.4919740550502708e-01  1.4523085299503516e-01  1.3830458428538139e-01  1.3108845679379930e-01  1.2432007228193004e-01  1.1765547893869865e-01  1.1109305062860497e-01  1.0462961032157020e-01  9.8246249638970801e-02  9.1926858771894424e-02  8.5657742579124896e-02  7.9427993616512760e-02  7.3229517075001416e-02  6.7056458304371583e-02  6.0904504370126386e-02  5.4770146368388069e-02  4.8650019376989297e-02  4.2540319913397330e-02  3.6436317757259369e-02  3.0332023364393307e-02  2.4220186238095517e-02  1.8092875427464829e-02  1.1942893402994842e-02  5.7658761585003280e-03  -4.3775889074956781e-04  -6.6623211843710780e-03  -1.2898502842887918e-02  -1.9136359898569103e-02  -2.5367984079150079e-02  -3.1588812916904144e-02  -3.7797617915904538e-02  -4.3995763912861335e-02  -5.0186306300216192e-02  -5.6373252578235583e-02  -6.2561110147632243e-02  -6.8754735317156285e-02  -7.4959464363948305e-02  -8.1181487118887924e-02  -8.7428417248392024e-02  -9.3709891020216818e-02  -1.0003811121680410e-01  -1.0642770261850597e-01  -1.1289545365609846e-01  -1.1946047632591299e-01  -1.2612595103644253e-01  -1.3289266324518292e-01  -1.4010396518599622e-01  -1.4702436969215726e-01  -1.5098061311286382e-01  1.4945260644475611e-01  1.4548682294256360e-01  1.3855874376689184e-01  1.3133384588357097e-01  1.2455248234207604e-01  1.1787096471283012e-01  1.1128860679559867e-01  1.0480288617066362e-01  9.8395543655545800e-02  9.2050872862718958e-02  8.5755548049714844e-02  7.9498933430738647e-02  7.3273203184676408e-02  6.7072804419014614e-02  6.0893790561461547e-02  5.4733092220210028e-02  4.8587833425157323e-02  4.2454645323875578e-02  3.6328981748953111e-02  3.0204455648353282e-02  2.4072466901405652e-02  1.7922595654829437e-02  1.1744547218309262e-02  5.5317626926413626e-03  -7.1466760260904079e-04  -6.9848425062112663e-03  -1.3263465470404769e-02  -1.9535656166475922e-02  -2.5791309990251539e-02  -3.2026273006124241e-02  -3.8241266660365245e-02  -4.4440093261399645e-02  -5.0628070846527241e-02  -5.6811010572778362e-02  -6.2994717374423082e-02  -6.9184901176218422e-02  -7.5387400875076255e-02  -8.1608643429259414e-02  -8.7856278080940528e-02  -9.4139815147076131e-02  -1.0047118960611737e-01  -1.0686462064234668e-01  -1.1333635922952104e-01  -1.1990483713654473e-01  -1.2657248674703409e-01  -1.3333924162378716e-01  -1.4054709595414258e-01  -1.4745935411143318e-01  -1.5140945838087325e-01  1.4966368821198484e-01  1.4569821934164445e-01  1.3876791513513856e-01  1.3153513425530153e-01  1.2474252528973227e-01  1.1804639305852994e-01  1.1144672892417898e-01  1.0494144438568673e-01  9.8512726743640477e-02  9.2145166185677155e-02  8.5825687144025983e-02  7.9543847703847995e-02  7.3292028828206457e-02  6.7064933324193457e-02  6.0858969409924323e-02  5.4671563622146077e-02  4.8500498740873983e-02  4.2343158855880442e-02  3.6195658191600345e-02  3.0051671740958710e-02  2.3901321593351819e-02  1.7730755305450454e-02  1.1524473288340017e-02  5.2714624932307039e-03  -1.0263398743374733e-03  -7.3511287275407500e-03  -1.3676975351012895e-02  -1.9981779448399031e-02  -2.6254030560792570e-02  -3.2492288159677279e-02  -3.8701492977793600e-02  -4.4889436985077302e-02  -5.1064499299878038e-02  -5.7234552411757060e-02  -6.3406645354296881e-02  -6.9587144030226630e-02  -7.5782148663893767e-02  -8.1998091996774908e-02  -8.8242463734064108e-02  -9.4524502148690459e-02  -1.0085578408828731e-01  -1.0725009315817237e-01  -1.1372317174539762e-01  -1.2029286075059406e-01  -1.2696096267842186e-01  -1.3372671722385585e-01  -1.4093095577471551e-01  -1.4783604797411334e-01  -1.5178084193957417e-01  1.4983506290763018e-01  1.4586959716065018e-01  1.3893688917101688e-01  1.3169711376147347e-01  1.2489482298447839e-01  1.1818615752459656e-01  1.1157158665549084e-01  1.0504928487908489e-01  9.8601726954759633e-02  9.2213670036152759e-02  8.5872160236564021e-02  7.9566835036023451e-02  7.3290158392304863e-02  6.7036960357047981e-02  6.0803885865575058e-02  5.4588790068954111e-02  4.8390169200323185e-02  4.2206450758457963e-02  3.6035069354817109e-02  2.9870692348296476e-02  2.3702929878877080e-02  1.7513668897395866e-02  1.1278728499965052e-02  4.9774195870678590e-03  -1.3873570893750237e-03  -7.7816972523667887e-03  -1.4160128235466760e-02  -2.0491035368438350e-02  -2.6765341124327900e-02  -3.2989386444627643e-02  -3.9175889046357666e-02  -4.5338335984352926e-02  -5.1488601677164361e-02  -5.7636405914580587e-02  -6.3789588506270159e-02  -6.9954689745840279e-02  -7.6137649510883990e-02  -8.2344570641793013e-02  -8.8582533520744508e-02  -9.4860332226545357e-02  -1.0118908186677944e-01  -1.0758208820689029e-01  -1.1405459554832455e-01  -1.2062391408253242e-01  -1.2729130149274342e-01  -1.3405542281352006e-01  -1.4125611449272943e-01  -1.4815503161527827e-01  -1.5209532234500750e-01  1.4997038891387610e-01  1.4600474360446755e-01  1.3906969133935398e-01  1.3182390365211832e-01  1.2501348017537012e-01  1.1829431581192924e-01  1.1166720694983255e-01  1.0513046462099616e-01  9.8666720456182785e-02  9.2260779166691842e-02  8.5899684686531502e-02  7.9573017822496206e-02  7.3273158030886770e-02  6.6994855837955530e-02  6.0734743731064134e-02  5.4490836387443432e-02  4.8262124598544009e-02  4.2048100753705304e-02  3.5848088686299524e-02  2.9659157234742346e-02  2.3472580936408163e-02  1.7266492780384377e-02  1.1002975497758796e-02  4.6387358451446970e-03  -1.8217149195353555e-03  -8.3092549519246869e-03  -1.4742453121628120e-02  -2.1081020634140454e-02  -2.7330039822991023e-02  -3.3513002840282836e-02  -3.9654602030274336e-02  -4.5774775811113451e-02  -5.1888147562834316e-02  -5.8005157326141608e-02  -6.4133401331157872e-02  -7.0278786550668035e-02  -7.6446508338836164e-02  -8.2641936107869213e-02  -8.8871473231622908e-02  -9.5143302291166021e-02  -1.0146798454219913e-01  -1.0785831431677255e-01  -1.1432904986613596e-01  -1.2089702249452311e-01  -1.2756301785009416e-01  -1.3432522593578333e-01  -1.4152264491795605e-01  -1.4841639956618019e-01  -1.5235298364024669e-01  1.5007267881451125e-01  1.4610678074526037e-01  1.3916965807983778e-01  1.3191897303805641e-01  1.2510203802145034e-01  1.1837447800553755e-01  1.1173730475348934e-01  1.0518887819115078e-01  9.8711889871613029e-02  9.2291102466903308e-02  8.5913458151867156e-02  7.9568358543906453e-02  7.3247930913648326e-02  6.6946606472938749e-02  6.0660658229348956e-02  5.4387772811327513e-02  4.8126807289137694e-02  4.1877687665288814e-02  3.5641374619144212e-02  2.9418485532854671e-02  2.3205774130930966e-02  1.6982661639495758e-02  1.0692838456325560e-02  4.2380556071781334e-03  -2.3694895429029771e-03  -8.9830818091262074e-03  -1.5459053263014865e-02  -2.1761385686405208e-02  -2.7938332790963624e-02  -3.4043495287609665e-02  -4.0115197684278292e-02  -4.6177345923474979e-02  -5.2244337411391527e-02  -5.8324999972410849e-02  -6.4425102840342627e-02  -7.0548914149849512e-02  -7.6700269178041777e-02  -8.2883437854309197e-02  -8.9103937682558754e-02  -9.5369230865670090e-02  -1.0168928151112237e-01  -1.0807637472985485e-01  -1.1454481773202865e-01  -1.2111102512859130e-01  -1.2777538729758373e-01  -1.3453571391917540e-01  -1.4173032491558385e-01  -1.4861997588861675e-01  -1.5255365616609523e-01  1.5014432192458774e-01  1.4617818575120117e-01  1.3923944493353640e-01  1.3198511488231038e-01  1.2516339968563253e-01  1.1842967609765967e-01  1.1178509183305071e-01  1.0522800522291298e-01  9.8741110633382131e-02  9.2309084077402667e-02  8.5918717714221715e-02  7.9559172090429106e-02  7.3222225083505912e-02  6.6901820768699938e-02  6.0593574054676393e-02  5.4294315361989837e-02  4.8001867843249717e-02  4.1715149264528753e-02  3.5434720417962910e-02  2.9163062939069905e-02  2.2904335570089189e-02  1.6652752628732097e-02  1.0341719673829890e-02  3.7463934604337664e-03  -3.0834765456717174e-03  -9.8557741617638327e-03  -1.6329570952297749e-02  -2.2508348669714216e-02  -2.8546583203153748e-02  -3.4535172857532936e-02  -4.0517683220379366e-02  -4.6513679534688726e-02  -5.2531886157221569e-02  -5.8576466805497593e-02  -6.4649768806087124e-02  -7.0753623558875961e-02  -7.6890128056060283e-02  -8.3062292591848955e-02  -8.9274701783636765e-02  -9.5534109671494089e-02  -1.0184992742753704e-01  -1.0823399398890134e-01  -1.1470024103937658e-01  -1.2126475290348894e-01  -1.2792761644540759e-01  -1.3468636082091970e-01  -1.4187880016995341e-01  -1.4876546803761126e-01  -1.5269706450095832e-01  1.5018706446991037e-01  1.4622076948827306e-01  1.3928099746488640e-01  1.3202439192536505e-01  1.2519973728135186e-01  1.1846221920326222e-01  1.1181306789692706e-01  1.0525062318029603e-01  9.8757565636887784e-02  9.2318492403237043e-02  8.5920067496841779e-02  7.9551246908174431e-02  7.3203502984997879e-02  6.6870328386170311e-02  6.0546670707895843e-02  5.4228365391655806e-02  4.7911741558794581e-02  4.1593475419427636e-02  3.5270806385985960e-02  2.8942054413513770e-02  2.2609414997784402e-02  1.6284560185830278e-02  9.9369455904387404e-03  3.1514021590069302e-03  -3.9295456622796448e-03  -1.0888664707468741e-02  -1.7293063624176166e-02  -2.3213585059456480e-02  -2.9051727038326702e-02  -3.4908066016772793e-02  -4.0804474509397413e-02  -4.6743175443150278e-02  -5.2722144303440126e-02  -5.8739140617760817e-02  -6.4792658540990117e-02  -7.0882131246327681e-02  -7.7008102188780181e-02  -8.3172534131545114e-02  -8.9379278097686796e-02  -9.5634556063899104e-02  -1.0194737987112731e-01  -1.0832927796001474e-01  -1.1479392966786331e-01  -1.2135720527136865e-01  -1.2801899917974027e-01  -1.3477666969443305e-01  -1.4196771247174181e-01  -1.4885257854762854e-01  -1.5278293111279775e-01  1.5020197798693427e-01  1.4623564324249233e-01  1.3929551122569586e-01  1.3203807696220804e-01  1.2521240036362433e-01  1.1847355649196654e-01  1.1182282189716587e-01  1.0525852519748868e-01  9.8763347598080420e-02  9.2321858286334338e-02  8.5920677304466120e-02  7.9548687388590306e-02  7.3197249175819448e-02  6.6859685536206706e-02  6.0530683794485181e-02  5.4205670261768236e-02  4.7880307047905954e-02  4.1550122860482132e-02  3.5210272480444373e-02  2.8855390419320937e-02  2.2481413893991119e-02  1.6096747919886936e-02  9.7302079995591501e-03  2.6914427846862982e-03  -4.4253248550286490e-03  -1.1468869378525289e-02  -1.8021893665332508e-02  -2.3611152719945686e-02  -2.9281514908252846e-02  -3.50