<?xml version="1.0"?>
<VTKFile type="UnstructuredGrid"  version="0.1"  >
<UnstructuredGrid>
<Piece  NumberOfPoints="1617" NumberOfCells="3072">
<Points>
<DataArray  type="Float64"  NumberOfComponents="3"  format="ascii">0 0 0  0.03125 0 0  0.0625 0 0  0.09375 0 0  0.125 0 0  0.15625 0 0  0.1875 0 0  0.21875 0 0  0.25 0 0  0.28125 0 0  0.3125 0 0  0.34375 0 0  0.375 0 0  0.40625 0 0  0.4375 0 0  0.46875 0 0  0.5 0 0  0.53125 0 0  0.5625 0 0  0.59375 0 0  0.625 0 0  0.65625 0 0  0.6875 0 0  0.71875 0 0  0.75 0 0  0.78125 0 0  0.8125 0 0  0.84375 0 0  0.875 0 0  0.90625 0 0  0.9375 0 0  0.96875 0 0  1 0 0  1.03125 0 0  1.0625 0 0  1.09375 0 0  1.125 0 0  1.15625 0 0  1.1875 0 0  1.21875 0 0  1.25 0 0  1.28125 0 0  1.3125 0 0  1.34375 0 0  1.375 0 0  1.40625 0 0  1.4375 0 0  1.46875 0 0  1.5 0 0  0 0.03125 0  0.03125 0.03125 0  0.0625 0.03125 0  0.09375 0.03125 0  0.125 0.03125 0  0.15625 0.03125 0  0.1875 0.03125 0  0.21875 0.03125 0  0.25 0.03125 0  0.28125 0.03125 0  0.3125 0.03125 0  0.34375 0.03125 0  0.375 0.03125 0  0.40625 0.03125 0  0.4375 0.03125 0  0.46875 0.03125 0  0.5 0.03125 0  0.53125 0.03125 0  0.5625 0.03125 0  0.59375 0.03125 0  0.625 0.03125 0  0.65625 0.03125 0  0.6875 0.03125 0  0.71875 0.03125 0  0.75 0.03125 0  0.78125 0.03125 0  0.8125 0.03125 0  0.84375 0.03125 0  0.875 0.03125 0  0.90625 0.03125 0  0.9375 0.03125 0  0.96875 0.03125 0  1 0.03125 0  1.03125 0.03125 0  1.0625 0.03125 0  1.09375 0.03125 0  1.125 0.03125 0  1.15625 0.03125 0  1.1875 0.03125 0  1.21875 0.03125 0  1.25 0.03125 0  1.28125 0.03125 0  1.3125 0.03125 0  1.34375 0.03125 0  1.375 0.03125 0  1.40625 0.03125 0  1.4375 0.03125 0  1.46875 0.03125 0  1.5 0.03125 0  0 0.0625 0  0.03125 0.0625 0  0.0625 0.0625 0  0.09375 0.0625 0  0.125 0.0625 0  0.15625 0.0625 0  0.1875 0.0625 0  0.21875 0.0625 0  0.25 0.0625 0  0.28125 0.0625 0  0.3125 0.0625 0  0.34375 0.0625 0  0.375 0.0625 0  0.40625 0.0625 0  0.4375 0.0625 0  0.46875 0.0625 0  0.5 0.0625 0  0.53125 0.0625 0  0.5625 0.0625 0  0.59375 0.0625 0  0.625 0.0625 0  0.65625 0.0625 0  0.6875 0.0625 0  0.71875 0.0625 0  0.75 0.0625 0  0.78125 0.0625 0  0.8125 0.0625 0  0.84375 0.0625 0  0.875 0.0625 0  0.90625 0.0625 0  0.9375 0.0625 0  0.96875 0.0625 0  1 0.0625 0  1.03125 0.0625 0  1.0625 0.0625 0  1.09375 0.0625 0  1.125 0.0625 0  1.15625 0.0625 0  1.1875 0.0625 0  1.21875 0.0625 0  1.25 0.0625 0  1.28125 0.0625 0  1.3125 0.0625 0  1.34375 0.0625 0  1.375 0.0625 0  1.40625 0.0625 0  1.4375 0.0625 0  1.46875 0.0625 0  1.5 0.0625 0  0 0.09375 0  0.03125 0.09375 0  0.0625 0.09375 0  0.09375 0.09375 0  0.125 0.09375 0  0.15625 0.09375 0  0.1875 0.09375 0  0.21875 0.09375 0  0.25 0.09375 0  0.28125 0.09375 0  0.3125 0.09375 0  0.34375 0.09375 0  0.375 0.09375 0  0.40625 0.09375 0  0.4375 0.09375 0  0.46875 0.09375 0  0.5 0.09375 0  0.53125 0.09375 0  0.5625 0.09375 0  0.59375 0.09375 0  0.625 0.09375 0  0.65625 0.09375 0  0.6875 0.09375 0  0.71875 0.09375 0  0.75 0.09375 0  0.78125 0.09375 0  0.8125 0.09375 0  0.84375 0.09375 0  0.875 0.09375 0  0.90625 0.09375 0  0.9375 0.09375 0  0.96875 0.09375 0  1 0.09375 0  1.03125 0.09375 0  1.0625 0.09375 0  1.09375 0.09375 0  1.125 0.09375 0  1.15625 0.09375 0  1.1875 0.09375 0  1.21875 0.09375 0  1.25 0.09375 0  1.28125 0.09375 0  1.3125 0.09375 0  1.34375 0.09375 0  1.375 0.09375 0  1.40625 0.09375 0  1.4375 0.09375 0  1.46875 0.09375 0  1.5 0.09375 0  0 0.125 0  0.03125 0.125 0  0.0625 0.125 0  0.09375 0.125 0  0.125 0.125 0  0.15625 0.125 0  0.1875 0.125 0  0.21875 0.125 0  0.25 0.125 0  0.28125 0.125 0  0.3125 0.125 0  0.34375 0.125 0  0.375 0.125 0  0.40625 0.125 0  0.4375 0.125 0  0.46875 0.125 0  0.5 0.125 0  0.53125 0.125 0  0.5625 0.125 0  0.59375 0.125 0  0.625 0.125 0  0.65625 0.125 0  0.6875 0.125 0  0.71875 0.125 0  0.75 0.125 0  0.78125 0.125 0  0.8125 0.125 0  0.84375 0.125 0  0.875 0.125 0  0.90625 0.125 0  0.9375 0.125 0  0.96875 0.125 0  1 0.125 0  1.03125 0.125 0  1.0625 0.125 0  1.09375 0.125 0  1.125 0.125 0  1.15625 0.125 0  1.1875 0.125 0  1.21875 0.125 0  1.25 0.125 0  1.28125 0.125 0  1.3125 0.125 0  1.34375 0.125 0  1.375 0.125 0  1.40625 0.125 0  1.4375 0.125 0  1.46875 0.125 0  1.5 0.125 0  0 0.15625 0  0.03125 0.15625 0  0.0625 0.15625 0  0.09375 0.15625 0  0.125 0.15625 0  0.15625 0.15625 0  0.1875 0.15625 0  0.21875 0.15625 0  0.25 0.15625 0  0.28125 0.15625 0  0.3125 0.15625 0  0.34375 0.15625 0  0.375 0.15625 0  0.40625 0.15625 0  0.4375 0.15625 0  0.46875 0.15625 0  0.5 0.15625 0  0.53125 0.15625 0  0.5625 0.15625 0  0.59375 0.15625 0  0.625 0.15625 0  0.65625 0.15625 0  0.6875 0.15625 0  0.71875 0.15625 0  0.75 0.15625 0  0.78125 0.15625 0  0.8125 0.15625 0  0.84375 0.15625 0  0.875 0.15625 0  0.90625 0.15625 0  0.9375 0.15625 0  0.96875 0.15625 0  1 0.15625 0  1.03125 0.15625 0  1.0625 0.15625 0  1.09375 0.15625 0  1.125 0.15625 0  1.15625 0.15625 0  1.1875 0.15625 0  1.21875 0.15625 0  1.25 0.15625 0  1.28125 0.15625 0  1.3125 0.15625 0  1.34375 0.15625 0  1.375 0.15625 0  1.40625 0.15625 0  1.4375 0.15625 0  1.46875 0.15625 0  1.5 0.15625 0  0 0.1875 0  0.03125 0.1875 0  0.0625 0.1875 0  0.09375 0.1875 0  0.125 0.1875 0  0.15625 0.1875 0  0.1875 0.1875 0  0.21875 0.1875 0  0.25 0.1875 0  0.28125 0.1875 0  0.3125 0.1875 0  0.34375 0.1875 0  0.375 0.1875 0  0.40625 0.1875 0  0.4375 0.1875 0  0.46875 0.1875 0  0.5 0.1875 0  0.53125 0.1875 0  0.5625 0.1875 0  0.59375 0.1875 0  0.625 0.1875 0  0.65625 0.1875 0  0.6875 0.1875 0  0.71875 0.1875 0  0.75 0.1875 0  0.78125 0.1875 0  0.8125 0.1875 0  0.84375 0.1875 0  0.875 0.1875 0  0.90625 0.1875 0  0.9375 0.1875 0  0.96875 0.1875 0  1 0.1875 0  1.03125 0.1875 0  1.0625 0.1875 0  1.09375 0.1875 0  1.125 0.1875 0  1.15625 0.1875 0  1.1875 0.1875 0  1.21875 0.1875 0  1.25 0.1875 0  1.28125 0.1875 0  1.3125 0.1875 0  1.34375 0.1875 0  1.375 0.1875 0  1.40625 0.1875 0  1.4375 0.1875 0  1.46875 0.1875 0  1.5 0.1875 0  0 0.21875 0  0.03125 0.21875 0  0.0625 0.21875 0  0.09375 0.21875 0  0.125 0.21875 0  0.15625 0.21875 0  0.1875 0.21875 0  0.21875 0.21875 0  0.25 0.21875 0  0.28125 0.21875 0  0.3125 0.21875 0  0.34375 0.21875 0  0.375 0.21875 0  0.40625 0.21875 0  0.4375 0.21875 0  0.46875 0.21875 0  0.5 0.21875 0  0.53125 0.21875 0  0.5625 0.21875 0  0.59375 0.21875 0  0.625 0.21875 0  0.65625 0.21875 0  0.6875 0.21875 0  0.71875 0.21875 0  0.75 0.21875 0  0.78125 0.21875 0  0.8125 0.21875 0  0.84375 0.21875 0  0.875 0.21875 0  0.90625 0.21875 0  0.9375 0.21875 0  0.96875 0.21875 0  1 0.21875 0  1.03125 0.21875 0  1.0625 0.21875 0  1.09375 0.21875 0  1.125 0.21875 0  1.15625 0.21875 0  1.1875 0.21875 0  1.21875 0.21875 0  1.25 0.21875 0  1.28125 0.21875 0  1.3125 0.21875 0  1.34375 0.21875 0  1.375 0.21875 0  1.40625 0.21875 0  1.4375 0.21875 0  1.46875 0.21875 0  1.5 0.21875 0  0 0.25 0  0.03125 0.25 0  0.0625 0.25 0  0.09375 0.25 0  0.125 0.25 0  0.15625 0.25 0  0.1875 0.25 0  0.21875 0.25 0  0.25 0.25 0  0.28125 0.25 0  0.3125 0.25 0  0.34375 0.25 0  0.375 0.25 0  0.40625 0.25 0  0.4375 0.25 0  0.46875 0.25 0  0.5 0.25 0  0.53125 0.25 0  0.5625 0.25 0  0.59375 0.25 0  0.625 0.25 0  0.65625 0.25 0  0.6875 0.25 0  0.71875 0.25 0  0.75 0.25 0  0.78125 0.25 0  0.8125 0.25 0  0.84375 0.25 0  0.875 0.25 0  0.90625 0.25 0  0.9375 0.25 0  0.96875 0.25 0  1 0.25 0  1.03125 0.25 0  1.0625 0.25 0  1.09375 0.25 0  1.125 0.25 0  1.15625 0.25 0  1.1875 0.25 0  1.21875 0.25 0  1.25 0.25 0  1.28125 0.25 0  1.3125 0.25 0  1.34375 0.25 0  1.375 0.25 0  1.40625 0.25 0  1.4375 0.25 0  1.46875 0.25 0  1.5 0.25 0  0 0.28125 0  0.03125 0.28125 0  0.0625 0.28125 0  0.09375 0.28125 0  0.125 0.28125 0  0.15625 0.28125 0  0.1875 0.28125 0  0.21875 0.28125 0  0.25 0.28125 0  0.28125 0.28125 0  0.3125 0.28125 0  0.34375 0.28125 0  0.375 0.28125 0  0.40625 0.28125 0  0.4375 0.28125 0  0.46875 0.28125 0  0.5 0.28125 0  0.53125 0.28125 0  0.5625 0.28125 0  0.59375 0.28125 0  0.625 0.28125 0  0.65625 0.28125 0  0.6875 0.28125 0  0.71875 0.28125 0  0.75 0.28125 0  0.78125 0.28125 0  0.8125 0.28125 0  0.84375 0.28125 0  0.875 0.28125 0  0.90625 0.28125 0  0.9375 0.28125 0  0.96875 0.28125 0  1 0.28125 0  1.03125 0.28125 0  1.0625 0.28125 0  1.09375 0.28125 0  1.125 0.28125 0  1.15625 0.28125 0  1.1875 0.28125 0  1.21875 0.28125 0  1.25 0.28125 0  1.28125 0.28125 0  1.3125 0.28125 0  1.34375 0.28125 0  1.375 0.28125 0  1.40625 0.28125 0  1.4375 0.28125 0  1.46875 0.28125 0  1.5 0.28125 0  0 0.3125 0  0.03125 0.3125 0  0.0625 0.3125 0  0.09375 0.3125 0  0.125 0.3125 0  0.15625 0.3125 0  0.1875 0.3125 0  0.21875 0.3125 0  0.25 0.3125 0  0.28125 0.3125 0  0.3125 0.3125 0  0.34375 0.3125 0  0.375 0.3125 0  0.40625 0.3125 0  0.4375 0.3125 0  0.46875 0.3125 0  0.5 0.3125 0  0.53125 0.3125 0  0.5625 0.3125 0  0.59375 0.3125 0  0.625 0.3125 0  0.65625 0.3125 0  0.6875 0.3125 0  0.71875 0.3125 0  0.75 0.3125 0  0.78125 0.3125 0  0.8125 0.3125 0  0.84375 0.3125 0  0.875 0.3125 0  0.90625 0.3125 0  0.9375 0.3125 0  0.96875 0.3125 0  1 0.3125 0  1.03125 0.3125 0  1.0625 0.3125 0  1.09375 0.3125 0  1.125 0.3125 0  1.15625 0.3125 0  1.1875 0.3125 0  1.21875 0.3125 0  1.25 0.3125 0  1.28125 0.3125 0  1.3125 0.3125 0  1.34375 0.3125 0  1.375 0.3125 0  1.40625 0.3125 0  1.4375 0.3125 0  1.46875 0.3125 0  1.5 0.3125 0  0 0.34375 0  0.03125 0.34375 0  0.0625 0.34375 0  0.09375 0.34375 0  0.125 0.34375 0  0.15625 0.34375 0  0.1875 0.34375 0  0.21875 0.34375 0  0.25 0.34375 0  0.28125 0.34375 0  0.3125 0.34375 0  0.34375 0.34375 0  0.375 0.34375 0  0.40625 0.34375 0  0.4375 0.34375 0  0.46875 0.34375 0  0.5 0.34375 0  0.53125 0.34375 0  0.5625 0.34375 0  0.59375 0.34375 0  0.625 0.34375 0  0.65625 0.34375 0  0.6875 0.34375 0  0.71875 0.34375 0  0.75 0.34375 0  0.78125 0.34375 0  0.8125 0.34375 0  0.84375 0.34375 0  0.875 0.34375 0  0.90625 0.34375 0  0.9375 0.34375 0  0.96875 0.34375 0  1 0.34375 0  1.03125 0.34375 0  1.0625 0.34375 0  1.09375 0.34375 0  1.125 0.34375 0  1.15625 0.34375 0  1.1875 0.34375 0  1.21875 0.34375 0  1.25 0.34375 0  1.28125 0.34375 0  1.3125 0.34375 0  1.34375 0.34375 0  1.375 0.34375 0  1
[...]
<PointData  Scalars="f_49"> 
<DataArray  type="Float64"  Name="f_49"  format="ascii">-1.5706769942729456e-02  -1.3716259401873383e-02  -1.3587796837631090e-02  -1.3435928394057252e-02  -1.3217399759527324e-02  -1.2952941011340830e-02  -1.2643100661747899e-02  -1.2283903588712498e-02  -1.1873495435975507e-02  -1.1412596338505786e-02  -1.0903545376483683e-02  -1.0349411287249090e-02  -9.7534582040434050e-03  -9.1189051282386593e-03  -8.4488397452075117e-03  -7.7462016732199289e-03  -7.0137949384826790e-03  -6.2543139659709821e-03  -5.4703773813534144e-03  -4.6645672937502755e-03  -3.8394722655585708e-03  -2.9977316170657332e-03  -2.1420778630234926e-03  -1.2753734330155253e-03  -4.0063776610487959e-04  4.7893836654585854e-04  1.3599928636139249e-03  2.2390060312706857e-03  3.1123252998447809e-03  3.9761965168290201e-03  4.8267966969655551e-03  5.6602633552797800e-03  6.4727165998249526e-03  7.2602717094648250e-03  8.0190410579962599e-03  8.7451277254065075e-03  9.4346089075901685e-03  1.0083529687714072e-02  1.0687885290731744e-02  1.1243707644699874e-02  1.1747266100427848e-02  1.2195417893682666e-02  1.2589243624560245e-02  1.2925844303759907e-02  1.3251339873336213e-02  1.3457192213682422e-02  1.3925234942075176e-02  1.3319196797538463e-02  1.5921230260504828e-02  -1.5148765764344064e-02  -1.2371355863178857e-02  -1.2615272325237809e-02  -1.2457012159685360e-02  -1.2287538722430319e-02  -1.2068368820326254e-02  -1.1805060075479967e-02  -1.1491173529907067e-02  -1.1124821967872643e-02  -1.0707048981834952e-02  -1.0240533243021559e-02  -9.7285580466732902e-03  -9.1745078281004044e-03  -8.5816718089692275e-03  -7.9531898855919134e-03  -7.2920524504500907e-03  -6.6011199653265712e-03  -5.8831511841272851e-03  -5.1408367721379996e-03  -4.3768370764514300e-03  -3.5938226874079509e-03  -2.7945156241579996e-03  -1.9817280548780117e-03  -1.1583948316408290e-03  -3.2759613607749773e-04  5.0743256844085736e-04  1.3433043234749946e-03  2.1764969922499718e-03  3.0033787691487904e-03  3.8202381519096855e-03  4.6233133306275206e-03  5.4088166298598790e-03  6.1729509603792839e-03  6.9119168140634362e-03  7.6219094835403376e-03  8.2991083209014559e-03  8.9396584778958458e-03  9.5396562470000668e-03  1.0095137183448528e-02  1.0602124553674586e-02  1.1056837404046361e-02  1.1456049117983742e-02  1.1799625818945244e-02  1.2087481693195342e-02  1.2345431215004693e-02  1.2530757243721533e-02  1.2783942793318676e-02  1.2564270607291688e-02  1.5091000821548170e-02  -1.3720744720980536e-02  -1.1075599275500817e-02  -1.1434245236997962e-02  -1.1228376759401819e-02  -1.1114056033231330e-02  -1.0941681469936624e-02  -1.0732180526816052e-02  -1.0472473836676844e-02  -1.0159879510843290e-02  -9.7955197707465837e-03  -9.3823325246415214e-03  -8.9237688880873592e-03  -8.4232959563823803e-03  -7.8842357396114397e-03  -7.3097429451734570e-03  -6.7028209574301915e-03  -6.0663475490834763e-03  -5.4031040831377889e-03  -4.7158081092209128e-03  -4.0071497497680747e-03  -3.2798313517349411e-03  -2.5366085257535792e-03  -1.7803292658647807e-03  -1.0139667335666719e-03  -2.4064100752848078e-04  5.3637389079495325e-04  1.3136590036172896e-03  2.0876735762712490e-03  2.8547874749203206e-03  3.6113163815516334e-03  4.3535534155229602e-03  5.0777924302692970e-03  5.7803405112190724e-03  6.4575193307231738e-03  7.1056562384110384e-03  7.7210677819296520e-03  8.3000352235893960e-03  8.8387845579246133e-03  9.3334564309809319e-03  9.7801521595210598e-03  1.0175049282901269e-02  1.0514856475626493e-02  1.0798954753479308e-02  1.1027014318351866e-02  1.1225641067245849e-02  1.1343754755306463e-02  1.1565016881960152e-02  1.1269242117013046e-02  1.3817619854059063e-02  -1.2593867468812992e-02  -1.0027950633749600e-02  -1.0372800305263693e-02  -1.0174610244464349e-02  -1.0103270852601782e-02  -9.9626895925065666e-03  -9.7948139484754435e-03  -9.5783641492068472e-03  -9.3102191527673420e-03  -8.9911267680174711e-03  -8.6238373820006417e-03  -8.2117042666924201e-03  -7.7581278990907412e-03  -7.2663801601523465e-03  -6.7395789817207693e-03  -6.1807013558872444e-03  -5.5926053875346897e-03  -4.9780557227014893e-03  -4.3397532243130317e-03  -3.6803701547405017e-03  -3.0025910372912263e-03  -2.3091575124636800e-03  -1.6029132055028895e-03  -8.8684245386620036e-04  -1.6409564572125634e-04  5.6200501076307920e-04  1.2879817791129305e-03  2.0102368268298840e-03  2.7250989024112577e-03  3.4288709826525566e-03  4.1178696334413650e-03  4.7884502826814465e-03  5.4370167069412055e-03  6.0600162937816705e-03  6.6539240423242529e-03  7.2152196972976954e-03  7.7403585632743960e-03  8.2257484191708020e-03  8.6677200052689418e-03  9.0625718797771957e-03  9.4067117559395400e-03  9.6971006573214336e-03  9.9335743868132955e-03  1.0116228732652966e-02  1.0273009012186510e-02  1.0354288139790668e-02  1.0545936721449661e-02  1.0222741821266406e-02  1.2783104849234709e-02  -1.1592724492455884e-02  -9.0420769000982889e-03  -9.4001438035402948e-03  -9.2307758470875339e-03  -9.1866972631051615e-03  -9.0730497744453947e-03  -8.9395142748459836e-03  -8.7588896423811818e-03  -8.5287144535697371e-03  -8.2491633439024294e-03  -7.9225929455664715e-03  -7.5521243336954787e-03  -7.1409913743746625e-03  -6.6923529855585683e-03  -6.2092467486455126e-03  -5.6945881992458598e-03  -5.1511821510801152e-03  -4.5817402436314578e-03  -3.9889055034274196e-03  -3.3752859856868412e-03  -2.7434986763484408e-03  -2.0962224752533814e-03  -1.4362552930140117e-03  -7.6656605561637055e-04  -9.0329399913989099e-05  5.8906831131831595e-04  1.2680568219108851e-03  1.9429387886066905e-03  2.6099615142651132e-03  3.2653859591657542e-03  3.9055386279929325e-03  4.5268393073324359e-03  5.1258050876997847e-03  5.6990359218191192e-03  6.2431883331007625e-03  6.7549442326680590e-03  7.2309771455932878e-03  7.6679288564504037e-03  8.0623853492994609e-03  8.4109351287568693e-03  8.7103295107978512e-03  8.9579782824467762e-03  9.1542468685368340e-03  9.3000326438626556e-03  9.4238243611645296e-03  9.4772114536129312e-03  9.6476143730734945e-03  9.3010417475955162e-03  1.1850008578468496e-02  -1.0703615142347862e-02  -8.1616290745919490e-03  -8.5378628247529936e-03  -8.3876823466805979e-03  -8.3633363254171922e-03  -8.2739538847715031e-03  -8.1685177370229220e-03  -8.0178599930832654e-03  -7.8201595233134049e-03  -7.5748702558704126e-03  -7.2839815276680630e-03  -6.9503631659422957e-03  -6.5770485014973812e-03  -6.1670596853647640e-03  -5.7233330920995109e-03  -5.2487033425391103e-03  -4.7459005920884806e-03  -4.2175570972707264e-03  -3.6662240601209178e-03  -3.0944024848888153e-03  -2.5045914949030621e-03  -1.8993546892387145e-03  -1.2813987756260645e-03  -6.5365059160237861e-04  -1.9311061742749472e-05  6.1813581735727509e-04  1.2549699579262924e-03  1.8873292641644554e-03  2.5113240271199835e-03  3.1231396422533729e-03  3.7191048482528425e-03  4.2957184440107236e-03  4.8496406142294777e-03  5.3776612932052844e-03  5.8766579114366028e-03  6.3435528205532249e-03  6.7752740473043431e-03  7.1687326984987499e-03  7.5208055772589232e-03  7.8284074971685155e-03  8.0886672184049355e-03  8.2994529094758112e-03  8.4616492159128431e-03  8.5767768010253723e-03  8.6738159827676707e-03  8.7048320356381322e-03  8.8584083791919243e-03  8.4915508763182962e-03  1.1033180355772986e-02  -9.9160449208820067e-03  -7.3796680681335941e-03  -7.7703215363304204e-03  -7.6342223117295037e-03  -7.6269779462440034e-03  -7.5582033962884997e-03  -7.4758710389235886e-03  -7.3506916042657914e-03  -7.1808260115556327e-03  -6.9651276981716340e-03  -6.7053300643893643e-03  -6.4040615614029996e-03  -6.0641613305652785e-03  -5.6885177908239390e-03  -5.2799642274402132e-03  -4.8412504992998255e-03  -4.3750243396791424e-03  -3.8838235825832726e-03  -3.3700813247491308e-03  -2.8361504914623877e-03  -2.2843565356770578e-03  -1.7170833190033171e-03  -1.1368872032909373e-03  -5.4661934479364755e-04  5.0482512272060982e-05  6.5077634860715794e-04  1.2502964354373287e-03  1.8449146861517305e-03  2.4305283220375580e-03  3.0032134389458283e-03  3.5593094086887617e-03  4.0954325898918910e-03  4.6084395123603700e-03  5.0953651427565177e-03  5.5533566560470185e-03  5.9796160080949770e-03  6.3713548719150715e-03  6.7257736297944397e-03  7.0400513768962333e-03  7.3114299480659568e-03  7.5374007038895036e-03  7.7162464191831877e-03  7.8492877157604786e-03  7.9385383891056038e-03  8.0133095586143975e-03  8.0259790974084467e-03  8.1660638309510279e-03  7.7837890480312181e-03  1.0319988956068246e-02  -9.2217168370227181e-03  -6.6892106882516537e-03  -7.0907399275304504e-03  -6.9657132870917836e-03  -6.9727328071636585e-03  -6.9209345195187372e-03  -6.8579410130261515e-03  -6.7544439251966673e-03  -6.6082879130427881e-03  -6.4179689538701535e-03  -6.1850194059627711e-03  -5.9118456914599446e-03  -5.6011229275292488e-03  -5.2556230937994613e-03  -4.8780892210740067e-03  -4.4711978443400750e-03  -4.0375220555766873e-03  -3.5795049377781731e-03  -3.0994463277571127e-03  -2.5995127255319865e-03  -2.0817910431504263e-03  -1.5483993728160346e-03  -1.0016570811995412e-03  -4.4428865927974770e-04  1.2041010329320115e-04  6.8853242146993084e-04  1.2557035613227014e-03  1.8173695704850827e-03  2.3691132321969296e-03  2.9068794439674629e-03  3.4270623952393593e-03  3.9264765463663505e-03  4.4022631463071045e-03  4.8517795769806617e-03  5.2725006587197665e-03  5.6619451584940571e-03  6.0176273198298824e-03  6.3370406708779768e-03  6.6176574025250973e-03  6.8570238790236267e-03  7.0529547713287346e-03  7.2040856524057985e-03  7.3120862875605376e-03  7.3793477872426327e-03  7.4354135568264670e-03  7.4328704638532356e-03  7.5620181005818096e-03  7.1679199586529895e-03  9.7006079444976433e-03  -8.6137955507761665e-03  -6.0840352287676504e-03  -6.4936942711142252e-03  -6.3775020415152003e-03  -6.3962519345508936e-03  -6.3584880645396226e-03  -6.3116997896745745e-03  -6.2264499087537574e-03  -6.1002994159018581e-03  -5.9315249443169420e-03  -5.7214677925150155e-03  -5.4723495217501670e-03  -5.1867159550109815e-03  -4.8672446724558659e-03  -4.5166118031552717e-03  -4.1374457137573961e-03  -3.7322696674434532e-03  -3.3034513257800555e-03  -2.8531595904282680e-03  -2.3833431965008295e-03  -1.8957756040544056e-03  -1.3921880536530500e-03  -8.7452500904162077e-04  -3.4529493817958936e-04  1.9211459776916437e-04  7.3334059522739707e-04  1.2733121568712924e-03  1.8067954283919017e-03  2.3289376421315460e-03  2.8355773442963550e-03  3.3232837265602432e-03  3.7892209028885099e-03  4.2309518259764896e-03  4.6462572745189284e-03  5.0330012631741297e-03  5.3890472267092565e-03  5.7122144881985460e-03  6.0002741722376025e-03  6.2509626961788365e-03  6.4620904302592130e-03  6.6317428314426243e-03  6.7588407226251181e-03  6.8453234143026403e-03  6.8938653024655950e-03  6.9341663596867217e-03  6.9189615815675592e-03  7.0392135107269303e-03  6.6358906691802323e-03  9.1661314517709550e-03  -8.0869378661953990e-03  -5.5591750014161480e-03  -5.9749696866474977e-03  -5.8658709461773114e-03  -5.8941996329400772e-03  -5.8679684926688054e-03  -5.8345963652850080e-03  -5.7644939900353132e-03  -5.6550098828638262e-03  -5.5042463522428104e-03  -5.3133711198352449e-03  -5.0844602123819799e-03  -4.8199551574456094e-03  -4.5224608720295578e-03  -4.1946146597726950e-03  -3.8390315069757397e-03  -3.4582268511680887e-03  -3.0545381234619051e-03  -2.6300331113729681e-03  -2.1864313628600484e-03  -1.7251159762957267e-03  -1.2472574422404893e-03  -7.5419636174027744e-04  -2.4805074342431905e-04  2.6765846266065614e-04  7.8775250493639951e-04  1.3059366774093762e-03  1.8158978797116916e-03  2.3122493588352533e-03  2.7908793808574077e-03  3.2487994155829280e-03  3.6837818772422612e-03  4.0940027988187171e-03  4.4777797535783623e-03  4.8334145270140638e-03  5.1591185073135322e-03  5.4529912748010759e-03  5.7130406310666234e-03  5.9372171077981262e-03  6.1235386565608842e-03  6.2702993696533219e-03  6.3766362965725224e-03  6.4446855959732615e-03  6.4773268282398763e-03  6.5043563284523350e-03  6.4786097900031755e-03  6.5915956418400364e-03  6.1809316867264853e-03  8.7093873081608552e-03  -7.6370167255323182e-03  -5.1107299209288450e-03  -5.5311770755775060e-03  -5.4277486092105445e-03  -5.4638107370478051e-03  -5.4469343539700092e-03  -5.4244942119029763e-03  -5.3667594676410279e-03  -5.2709091409448025e-03  -5.1348915364193828e-03  -4.9597242966351015e-03  -4.7473611486564295e-03  -4.5001515637798127e-03  -4.2206429558844273e-03  -3.9114565118520848e-03  -3.5752290285874524e-03  -3.2145225878159314e-03  -2.8317183993729336e-03  -2.4288535398752612e-03  -2.0074585287207869e-03  -1.5684747909860386e-03  -1.1122683383297750e-03  -6.3919756898072342e-04  -1.5060981093309363e-04  3.4981997742042836e-04  8.5536220704841089e-04  1.3574794691078495e-03  1.8481924845385855e-03  2.3216624367168653e-03  2.7742958760909276e-03  3.2040636697062154e-03  3.6097343676638077e-03  3.9903194893914891e-03  4.3447619882253123e-03  4.6718032533014618e-03  4.9699571766483970e-03  5.2375370740637252e-03  5.4727144856826712e-03  5.6735813509212734e-03  5.8382925346069812e-03  5.9652818881947688e-03  6.0538339600099784e-03  6.1062159233332032e-03  6.1254463601791449e-03  6.1413699501398720e-03  6.1068846528476214e-03  6.2139383160416638e-03  5.7973640770030040e-03  8.3244674518729682e-03  -7.2608516576035780e-03  -4.7356582104881133e-03  -5.1596121444055171e-03  -5.0606567421034076e-03  -5.1028557972128200e-03  -5.0934229743608847e-03  -5.0797033909910916e-03  -5.0318394300935022e-03  -4.9468667287533487e-03  -4.8225945868903622e-03  -4.6599056591456259e-03  -4.4606372981654393e-03  -4.2270456958148307e-03  -3.9616193709893733e-03  -3.6669662530230580e-03  -3.3457630460826350e-03  -3.0006679454418774e-03  -2.6341966334063956e-03  -2.2484775607959783e-03  -1.8450015232876634e-03  -1.4243023492481412e-03  -9.8565497481059778e-04  -5.2784246507990812e-04  -5.0496914634555714e-05  4.4261514043592384e-04  9.4152716341644265e-04  1.4334457582609640e-03  1.9080662735175425e-03  2.3598228766200493e-03  2.7867426044828540e-03  3.1886060322622416e-03  3.5656421111912770e-03  3.9178620667626590e-03  4.2448210564421896e-03  4.5456038530277982e-03  4.8189043711072254e-03  5.0631292370981636e-03  5.2765062244566618e-03  5.4571758168819734e-03  5.6033492789943386e-03  5.7135289976461279e-03  5.7870817257920908e-03  5.8263477534523014e-03  5.8344294517267171e-03  5.8411828877220464e-03  5.7995377927250943e-03  5.9017875024481607e-03  5.4804598365649111e-03  8.0065167014632677e-03  -6.9560095499728814e-03  -4.4316177186494565e-03  -4.8581644818645282e-03  -4.7626538757915594e-03  -4.8095957611225589e-03  -4.8059204738338974e-03  -4.7989519833733446e-03  -4.7587201598205311e-03  -4.6821364820003371e-03  -4.5668825793413002e-03  -4.4137122306775935e-03  -4.2243410516413253e-03  -4.0009161635666162e-03  -3.7458415001228578e-03  -3.4616797600403853e-03  -3.1511219689814044e-03  -2.8169255689659608e-03  -2.4617989092554334e-03  -2.0881180975296986e-03  -1.6976483680586473e-03  -1.2907525455364401e-03  -8.6551736653768952e-04  -4.1827302947456302e-04  5.5621955180037843e-05  5.5233085395575471e-04  1.0544947378149307e-03  1.5413117513606335e-03  2.0001894149625416e-03  2.4282957843074797e-03  2.8273720317766792e-03  3.2000673620509660e-03  3.5483737924595386e-03  3.8732183317602711e-03  4.1745415986105296e-03  4.4515254135122414e-03  4.7028279222301721e-03  4.9267764085663378e-03  5.1215217407034981e-03  5.2851504819156729e-03  5.4158494728936005e-03  5.5121235091570124e-03  5.5733646576728033e-03  5.6019390259831794e-03  5.6009890618655802e-03  5.6003564418282085e-03  5.5529802576833988e-03  5.6514172285247700e-03  5.2263304154357869e-03  7.7515757963420931e-03  -6.7206636714822673e-03  -4.1968452021124945e-03  -4.6252382734285969e-03  -4.5322734384552294e-03  -4.5827285034821252e-03  -4.5833152119252266e-03  -4.5813423272935026e-03  -4.5467425970503739e-03  -4.4763215410714092e-03  -4.3676449178307849e-03  -4.2213425761040172e-03  -4.0390007880307310e-03  -3.8226339442083402e-03  -3.5745162836550398e-03  -3.2970952444291842e-03  -2.9929835392447724e-03  -2.6649343647931179e-03  -2.3157733667602582e-03  -1.9482001335516786e-03  -1.5646483261823690e-03  -1.1658913227061132e-03  -7.4962654166092649e-04  -3.0854953774335693e-04  1.7281970064750659e-04  6.8909079637342625e-04  1.2061272314399757e-03  1.6894075694753935e-03  2.1269957872776216e-03  2.5248756686506446e-03  2.8914481753017454e-03  3.2327972391209530e-03  3.5523030973489723e-03  3.8512209749949570e-03  4.1293489001470764e-03  4.3855642681513403e-03  4.6182061811563231e-03  4.8253295474431548e-03  5.0048776387176695e-03  5.1547927082574727e-03  5.2731715273662489e-03  5.3584706488735744e-03  5.4100653556251781e-03  5.4303143078913048e-03  5.4223691328251639e-03  5.4160429713870023e-03  5.3642700070475977e-03  5.4597984416086161e-03  5.0318549001622456e-03  7.5564862564857557e-03  -6.5534913393271712e-03  -4.0300634807657401e-03  -4.4596796822519913e-03  -4.3684594623034888e-03  -4.4213285029998965e-03  -4.4248385144662226e-03  -4.4262890706631029e-03  -4.3955350949874510e-03  -4.3292983861268333e-03  -4.2250477665944763e-03  -4.0833034922028687e-03  -3.9055269333795111e-03  -3.6935884108741032e-03  -3.4495954696917674e-03  -3.1758035666930697e-03  -2.8746105433731543e-03  -2.5485435945881850e-03  -2.2002366178656154e-03  -1.8323978931015198e-03  -1.4479687410275939e-03  -1.0487021804682542e-03  -6.3485528148003582e-04  -1.9572859398579186e-04  3.0881372754757808e-04  8.6491205857177472e-04  1.4072486564319408e-03  1.8805013573450814e-03  2.2819411336927721e-03  2.6386206114019772e-03  2.9673677329461533e-03  3.2763870728959033e-03  3.5687692192976975e-03  3.8448968659797102e-03  4.1036779571825572e-03  4.3432471008580630e-03  4.5613747205526011e-03  4.7557029640538503e-03  4.9238877769782639e-03  5.0636794455276805e-03  5.1730528639661200e-03  5.2503920641414287e-03  5.2950341661801952e-03  5.3093139272012693e-03  5.2963748913075620e-03  5.2859990388767599e-03  5.2311091873044604e-03  5.3245812396814102e-03  4.8946350568974412e-03  7.4188319026017831e-03  -6.4535991800276265e-03  -3.9304104178237509e-03  -4.3607139384218476e-03  -4.2705069089377535e-03  -4.3247869732521123e-03  -4.3300008772505349e-03  -4.3334466829036671e-03  -4.3049264504907659e-03  -4.2411078102367328e-03  -4.1393937859665036e-03  -4.0002274867682692e-03  -3.8249767345609996e-03  -3.6153950630088108e-03  -3.3734398898269502e-03  -3.1011674203337810e-03  -2.8007027458960736e-03  -2.4741885019748536e-03  -2.1237203150026905e-03  -1.7513048424739215e-03  -1.3590303920107891e-03  -9.4840574181307097e-04  -5.2401840745755653e-04  -7.8830788480230708e-05  4.6194708163102934e-04  1.0647958546702793e-03  1.6408386971452106e-03  2.0952288475736582e-03  2.4368092500155038e-03  2.7432526590199010e-03  3.0342876109889154e-03  3.3153730703230702e-03  3.5866085994169122e-03  3.8462104725110430e-03  4.0916737379850044e-03  4.3202083560015172e-03  4.5289747685395010e-03  4.7152129170589018e-03  4.8763158905462591e-03  5.0098649283447667e-03  5.1137290199080908e-03  5.1862282168208835e-03  5.2266632322356980e-03  5.2373454921615693e-03  5.2214059557176050e-03  5.2086029360959947e-03  5.1518481600664676e-03  5.2440873460388874e-03  4.8129695672971063e-03  7.3369041075968941e-03  -6.4204711431858179e-03  -3.8973879529930157e-03  -4.3278963080148926e-03  -4.2380129931432571e-03  -4.2927604918913138e-03  -4.2985340497549230e-03  -4.3026396197683890e-03  -4.2748563656057007e-03  -4.2118341644570845e-03  -4.1109530126338173e-03  -3.9726295988770366e-03  -3.7981988830311001e-03  -3.5893720913754198e-03  -3.3480499226227999e-03  -3.0762089594674430e-03  -2.7758570983169137e-03  -2.4489564518151859e-03  -2.0973145277023032e-03  -1.7224513888728634e-03  -1.3255582720981228e-03  -9.0737506866318774e-04  -4.7202272065152733e-04  -2.2347362055292886e-05  5.6241070537844354e-04  1.1762247277518907e-03  1.7685772881154173e-03  2.2444206823572402e-03  2.5266997809402750e-03  2.7942691236167126