<?xml version="1.0"?>
<VTKFile type="UnstructuredGrid"  version="0.1"  >
<UnstructuredGrid>
<Piece  NumberOfPoints="1617" NumberOfCells="3072">
<Points>
<DataArray  type="Float64"  NumberOfComponents="3"  format="ascii">0 0 0  0.03125 0 0  0.0625 0 0  0.09375 0 0  0.125 0 0  0.15625 0 0  0.1875 0 0  0.21875 0 0  0.25 0 0  0.28125 0 0  0.3125 0 0  0.34375 0 0  0.375 0 0  0.40625 0 0  0.4375 0 0  0.46875 0 0  0.5 0 0  0.53125 0 0  0.5625 0 0  0.59375 0 0  0.625 0 0  0.65625 0 0  0.6875 0 0  0.71875 0 0  0.75 0 0  0.78125 0 0  0.8125 0 0  0.84375 0 0  0.875 0 0  0.90625 0 0  0.9375 0 0  0.96875 0 0  1 0 0  1.03125 0 0  1.0625 0 0  1.09375 0 0  1.125 0 0  1.15625 0 0  1.1875 0 0  1.21875 0 0  1.25 0 0  1.28125 0 0  1.3125 0 0  1.34375 0 0  1.375 0 0  1.40625 0 0  1.4375 0 0  1.46875 0 0  1.5 0 0  0 0.03125 0  0.03125 0.03125 0  0.0625 0.03125 0  0.09375 0.03125 0  0.125 0.03125 0  0.15625 0.03125 0  0.1875 0.03125 0  0.21875 0.03125 0  0.25 0.03125 0  0.28125 0.03125 0  0.3125 0.03125 0  0.34375 0.03125 0  0.375 0.03125 0  0.40625 0.03125 0  0.4375 0.03125 0  0.46875 0.03125 0  0.5 0.03125 0  0.53125 0.03125 0  0.5625 0.03125 0  0.59375 0.03125 0  0.625 0.03125 0  0.65625 0.03125 0  0.6875 0.03125 0  0.71875 0.03125 0  0.75 0.03125 0  0.78125 0.03125 0  0.8125 0.03125 0  0.84375 0.03125 0  0.875 0.03125 0  0.90625 0.03125 0  0.9375 0.03125 0  0.96875 0.03125 0  1 0.03125 0  1.03125 0.03125 0  1.0625 0.03125 0  1.09375 0.03125 0  1.125 0.03125 0  1.15625 0.03125 0  1.1875 0.03125 0  1.21875 0.03125 0  1.25 0.03125 0  1.28125 0.03125 0  1.3125 0.03125 0  1.34375 0.03125 0  1.375 0.03125 0  1.40625 0.03125 0  1.4375 0.03125 0  1.46875 0.03125 0  1.5 0.03125 0  0 0.0625 0  0.03125 0.0625 0  0.0625 0.0625 0  0.09375 0.0625 0  0.125 0.0625 0  0.15625 0.0625 0  0.1875 0.0625 0  0.21875 0.0625 0  0.25 0.0625 0  0.28125 0.0625 0  0.3125 0.0625 0  0.34375 0.0625 0  0.375 0.0625 0  0.40625 0.0625 0  0.4375 0.0625 0  0.46875 0.0625 0  0.5 0.0625 0  0.53125 0.0625 0  0.5625 0.0625 0  0.59375 0.0625 0  0.625 0.0625 0  0.65625 0.0625 0  0.6875 0.0625 0  0.71875 0.0625 0  0.75 0.0625 0  0.78125 0.0625 0  0.8125 0.0625 0  0.84375 0.0625 0  0.875 0.0625 0  0.90625 0.0625 0  0.9375 0.0625 0  0.96875 0.0625 0  1 0.0625 0  1.03125 0.0625 0  1.0625 0.0625 0  1.09375 0.0625 0  1.125 0.0625 0  1.15625 0.0625 0  1.1875 0.0625 0  1.21875 0.0625 0  1.25 0.0625 0  1.28125 0.0625 0  1.3125 0.0625 0  1.34375 0.0625 0  1.375 0.0625 0  1.40625 0.0625 0  1.4375 0.0625 0  1.46875 0.0625 0  1.5 0.0625 0  0 0.09375 0  0.03125 0.09375 0  0.0625 0.09375 0  0.09375 0.09375 0  0.125 0.09375 0  0.15625 0.09375 0  0.1875 0.09375 0  0.21875 0.09375 0  0.25 0.09375 0  0.28125 0.09375 0  0.3125 0.09375 0  0.34375 0.09375 0  0.375 0.09375 0  0.40625 0.09375 0  0.4375 0.09375 0  0.46875 0.09375 0  0.5 0.09375 0  0.53125 0.09375 0  0.5625 0.09375 0  0.59375 0.09375 0  0.625 0.09375 0  0.65625 0.09375 0  0.6875 0.09375 0  0.71875 0.09375 0  0.75 0.09375 0  0.78125 0.09375 0  0.8125 0.09375 0  0.84375 0.09375 0  0.875 0.09375 0  0.90625 0.09375 0  0.9375 0.09375 0  0.96875 0.09375 0  1 0.09375 0  1.03125 0.09375 0  1.0625 0.09375 0  1.09375 0.09375 0  1.125 0.09375 0  1.15625 0.09375 0  1.1875 0.09375 0  1.21875 0.09375 0  1.25 0.09375 0  1.28125 0.09375 0  1.3125 0.09375 0  1.34375 0.09375 0  1.375 0.09375 0  1.40625 0.09375 0  1.4375 0.09375 0  1.46875 0.09375 0  1.5 0.09375 0  0 0.125 0  0.03125 0.125 0  0.0625 0.125 0  0.09375 0.125 0  0.125 0.125 0  0.15625 0.125 0  0.1875 0.125 0  0.21875 0.125 0  0.25 0.125 0  0.28125 0.125 0  0.3125 0.125 0  0.34375 0.125 0  0.375 0.125 0  0.40625 0.125 0  0.4375 0.125 0  0.46875 0.125 0  0.5 0.125 0  0.53125 0.125 0  0.5625 0.125 0  0.59375 0.125 0  0.625 0.125 0  0.65625 0.125 0  0.6875 0.125 0  0.71875 0.125 0  0.75 0.125 0  0.78125 0.125 0  0.8125 0.125 0  0.84375 0.125 0  0.875 0.125 0  0.90625 0.125 0  0.9375 0.125 0  0.96875 0.125 0  1 0.125 0  1.03125 0.125 0  1.0625 0.125 0  1.09375 0.125 0  1.125 0.125 0  1.15625 0.125 0  1.1875 0.125 0  1.21875 0.125 0  1.25 0.125 0  1.28125 0.125 0  1.3125 0.125 0  1.34375 0.125 0  1.375 0.125 0  1.40625 0.125 0  1.4375 0.125 0  1.46875 0.125 0  1.5 0.125 0  0 0.15625 0  0.03125 0.15625 0  0.0625 0.15625 0  0.09375 0.15625 0  0.125 0.15625 0  0.15625 0.15625 0  0.1875 0.15625 0  0.21875 0.15625 0  0.25 0.15625 0  0.28125 0.15625 0  0.3125 0.15625 0  0.34375 0.15625 0  0.375 0.15625 0  0.40625 0.15625 0  0.4375 0.15625 0  0.46875 0.15625 0  0.5 0.15625 0  0.53125 0.15625 0  0.5625 0.15625 0  0.59375 0.15625 0  0.625 0.15625 0  0.65625 0.15625 0  0.6875 0.15625 0  0.71875 0.15625 0  0.75 0.15625 0  0.78125 0.15625 0  0.8125 0.15625 0  0.84375 0.15625 0  0.875 0.15625 0  0.90625 0.15625 0  0.9375 0.15625 0  0.96875 0.15625 0  1 0.15625 0  1.03125 0.15625 0  1.0625 0.15625 0  1.09375 0.15625 0  1.125 0.15625 0  1.15625 0.15625 0  1.1875 0.15625 0  1.21875 0.15625 0  1.25 0.15625 0  1.28125 0.15625 0  1.3125 0.15625 0  1.34375 0.15625 0  1.375 0.15625 0  1.40625 0.15625 0  1.4375 0.15625 0  1.46875 0.15625 0  1.5 0.15625 0  0 0.1875 0  0.03125 0.1875 0  0.0625 0.1875 0  0.09375 0.1875 0  0.125 0.1875 0  0.15625 0.1875 0  0.1875 0.1875 0  0.21875 0.1875 0  0.25 0.1875 0  0.28125 0.1875 0  0.3125 0.1875 0  0.34375 0.1875 0  0.375 0.1875 0  0.40625 0.1875 0  0.4375 0.1875 0  0.46875 0.1875 0  0.5 0.1875 0  0.53125 0.1875 0  0.5625 0.1875 0  0.59375 0.1875 0  0.625 0.1875 0  0.65625 0.1875 0  0.6875 0.1875 0  0.71875 0.1875 0  0.75 0.1875 0  0.78125 0.1875 0  0.8125 0.1875 0  0.84375 0.1875 0  0.875 0.1875 0  0.90625 0.1875 0  0.9375 0.1875 0  0.96875 0.1875 0  1 0.1875 0  1.03125 0.1875 0  1.0625 0.1875 0  1.09375 0.1875 0  1.125 0.1875 0  1.15625 0.1875 0  1.1875 0.1875 0  1.21875 0.1875 0  1.25 0.1875 0  1.28125 0.1875 0  1.3125 0.1875 0  1.34375 0.1875 0  1.375 0.1875 0  1.40625 0.1875 0  1.4375 0.1875 0  1.46875 0.1875 0  1.5 0.1875 0  0 0.21875 0  0.03125 0.21875 0  0.0625 0.21875 0  0.09375 0.21875 0  0.125 0.21875 0  0.15625 0.21875 0  0.1875 0.21875 0  0.21875 0.21875 0  0.25 0.21875 0  0.28125 0.21875 0  0.3125 0.21875 0  0.34375 0.21875 0  0.375 0.21875 0  0.40625 0.21875 0  0.4375 0.21875 0  0.46875 0.21875 0  0.5 0.21875 0  0.53125 0.21875 0  0.5625 0.21875 0  0.59375 0.21875 0  0.625 0.21875 0  0.65625 0.21875 0  0.6875 0.21875 0  0.71875 0.21875 0  0.75 0.21875 0  0.78125 0.21875 0  0.8125 0.21875 0  0.84375 0.21875 0  0.875 0.21875 0  0.90625 0.21875 0  0.9375 0.21875 0  0.96875 0.21875 0  1 0.21875 0  1.03125 0.21875 0  1.0625 0.21875 0  1.09375 0.21875 0  1.125 0.21875 0  1.15625 0.21875 0  1.1875 0.21875 0  1.21875 0.21875 0  1.25 0.21875 0  1.28125 0.21875 0  1.3125 0.21875 0  1.34375 0.21875 0  1.375 0.21875 0  1.40625 0.21875 0  1.4375 0.21875 0  1.46875 0.21875 0  1.5 0.21875 0  0 0.25 0  0.03125 0.25 0  0.0625 0.25 0  0.09375 0.25 0  0.125 0.25 0  0.15625 0.25 0  0.1875 0.25 0  0.21875 0.25 0  0.25 0.25 0  0.28125 0.25 0  0.3125 0.25 0  0.34375 0.25 0  0.375 0.25 0  0.40625 0.25 0  0.4375 0.25 0  0.46875 0.25 0  0.5 0.25 0  0.53125 0.25 0  0.5625 0.25 0  0.59375 0.25 0  0.625 0.25 0  0.65625 0.25 0  0.6875 0.25 0  0.71875 0.25 0  0.75 0.25 0  0.78125 0.25 0  0.8125 0.25 0  0.84375 0.25 0  0.875 0.25 0  0.90625 0.25 0  0.9375 0.25 0  0.96875 0.25 0  1 0.25 0  1.03125 0.25 0  1.0625 0.25 0  1.09375 0.25 0  1.125 0.25 0  1.15625 0.25 0  1.1875 0.25 0  1.21875 0.25 0  1.25 0.25 0  1.28125 0.25 0  1.3125 0.25 0  1.34375 0.25 0  1.375 0.25 0  1.40625 0.25 0  1.4375 0.25 0  1.46875 0.25 0  1.5 0.25 0  0 0.28125 0  0.03125 0.28125 0  0.0625 0.28125 0  0.09375 0.28125 0  0.125 0.28125 0  0.15625 0.28125 0  0.1875 0.28125 0  0.21875 0.28125 0  0.25 0.28125 0  0.28125 0.28125 0  0.3125 0.28125 0  0.34375 0.28125 0  0.375 0.28125 0  0.40625 0.28125 0  0.4375 0.28125 0  0.46875 0.28125 0  0.5 0.28125 0  0.53125 0.28125 0  0.5625 0.28125 0  0.59375 0.28125 0  0.625 0.28125 0  0.65625 0.28125 0  0.6875 0.28125 0  0.71875 0.28125 0  0.75 0.28125 0  0.78125 0.28125 0  0.8125 0.28125 0  0.84375 0.28125 0  0.875 0.28125 0  0.90625 0.28125 0  0.9375 0.28125 0  0.96875 0.28125 0  1 0.28125 0  1.03125 0.28125 0  1.0625 0.28125 0  1.09375 0.28125 0  1.125 0.28125 0  1.15625 0.28125 0  1.1875 0.28125 0  1.21875 0.28125 0  1.25 0.28125 0  1.28125 0.28125 0  1.3125 0.28125 0  1.34375 0.28125 0  1.375 0.28125 0  1.40625 0.28125 0  1.4375 0.28125 0  1.46875 0.28125 0  1.5 0.28125 0  0 0.3125 0  0.03125 0.3125 0  0.0625 0.3125 0  0.09375 0.3125 0  0.125 0.3125 0  0.15625 0.3125 0  0.1875 0.3125 0  0.21875 0.3125 0  0.25 0.3125 0  0.28125 0.3125 0  0.3125 0.3125 0  0.34375 0.3125 0  0.375 0.3125 0  0.40625 0.3125 0  0.4375 0.3125 0  0.46875 0.3125 0  0.5 0.3125 0  0.53125 0.3125 0  0.5625 0.3125 0  0.59375 0.3125 0  0.625 0.3125 0  0.65625 0.3125 0  0.6875 0.3125 0  0.71875 0.3125 0  0.75 0.3125 0  0.78125 0.3125 0  0.8125 0.3125 0  0.84375 0.3125 0  0.875 0.3125 0  0.90625 0.3125 0  0.9375 0.3125 0  0.96875 0.3125 0  1 0.3125 0  1.03125 0.3125 0  1.0625 0.3125 0  1.09375 0.3125 0  1.125 0.3125 0  1.15625 0.3125 0  1.1875 0.3125 0  1.21875 0.3125 0  1.25 0.3125 0  1.28125 0.3125 0  1.3125 0.3125 0  1.34375 0.3125 0  1.375 0.3125 0  1.40625 0.3125 0  1.4375 0.3125 0  1.46875 0.3125 0  1.5 0.3125 0  0 0.34375 0  0.03125 0.34375 0  0.0625 0.34375 0  0.09375 0.34375 0  0.125 0.34375 0  0.15625 0.34375 0  0.1875 0.34375 0  0.21875 0.34375 0  0.25 0.34375 0  0.28125 0.34375 0  0.3125 0.34375 0  0.34375 0.34375 0  0.375 0.34375 0  0.40625 0.34375 0  0.4375 0.34375 0  0.46875 0.34375 0  0.5 0.34375 0  0.53125 0.34375 0  0.5625 0.34375 0  0.59375 0.34375 0  0.625 0.34375 0  0.65625 0.34375 0  0.6875 0.34375 0  0.71875 0.34375 0  0.75 0.34375 0  0.78125 0.34375 0  0.8125 0.34375 0  0.84375 0.34375 0  0.875 0.34375 0  0.90625 0.34375 0  0.9375 0.34375 0  0.96875 0.34375 0  1 0.34375 0  1.03125 0.34375 0  1.0625 0.34375 0  1.09375 0.34375 0  1.125 0.34375 0  1.15625 0.34375 0  1.1875 0.34375 0  1.21875 0.34375 0  1.25 0.34375 0  1.28125 0.34375 0  1.3125 0.34375 0  1.34375 0.34375 0  1.375 0.34375 0  1
[...]
<PointData  Scalars="f_49"> 
<DataArray  type="Float64"  Name="f_49"  format="ascii">-1.0502421832885846e-01  -9.9649550198927836e-02  -9.5492406868140381e-02  -9.1372430985623060e-02  -8.7254916213179892e-02  -8.3177254553297331e-02  -7.9106211033513160e-02  -7.5017024855839803e-02  -7.0897555299516510e-02  -6.6744159302110098e-02  -6.2557343145265343e-02  -5.8339024188447323e-02  -5.4091302264359431e-02  -4.9816008873748506e-02  -4.5514584158520319e-02  -4.1188074220228854e-02  -3.6837176148349103e-02  -3.2462311088281195e-02  -2.8063722707123789e-02  -2.3641600942814620e-02  -1.9196227648629247e-02  -1.4728135078436936e-02  -1.0238262102760338e-02  -5.7280886211035628e-03  -1.1997278643004303e-03  3.3440395052159555e-03  7.8997965973552908e-03  1.2463582228235988e-02  1.7031028018939583e-02  2.1597517941376362e-02  2.6158346094901148e-02  3.0708851815949966e-02  3.5244518661368351e-02  3.9761029522444868e-02  4.4254281426703020e-02  4.8720355423572816e-02  5.3155471470953501e-02  5.7555885278100294e-02  6.1917870715422894e-02  6.6237587261513103e-02  7.0511471920941843e-02  7.4737365077642962e-02  7.8916693579729399e-02  8.3069525413984879e-02  8.7215422867644596e-02  9.1542504673876368e-02  9.5629106780780029e-02  1.0011108502989549e-01  1.0495260618696658e-01  -1.0511165967144019e-01  -9.9434483405495946e-02  -9.5246045649524172e-02  -9.1087425134873529e-02  -8.6934476630904575e-02  -8.2851280663107152e-02  -7.8786119001847107e-02  -7.4705712815905517e-02  -7.0594954977088675e-02  -6.6449658456940786e-02  -6.2270334962262967e-02  -5.8059005913407583e-02  -5.3817854353566917e-02  -4.9548780943526612e-02  -4.5253300823800829e-02  -4.0932551103422261e-02  -3.6587338279532026e-02  -3.2218209790921021e-02  -2.7825549432561349e-02  -2.3409697584938334e-02  -1.8971093320836796e-02  -1.4510429361217943e-02  -1.0028804360541576e-02  -5.5278521994565439e-03  -1.0098271401755828e-03  3.5223715428648076e-03  8.0652417388292989e-03  1.2614780863611791e-02  1.7166630168101295e-02  2.1716236050147442e-02  2.6259003286317716e-02  3.0790420246171669e-02  3.5306144596535596e-02  3.9802045159581870e-02  4.4274204160626877e-02  4.8718882071170130e-02  5.3132463258615363e-02  5.7511374565557660e-02  6.1852039928138980e-02  6.6150895043162058e-02  7.0404647324568442e-02  7.4612128360497187e-02  7.8775723250922622e-02  8.2918415780714391e-02  8.7063723398035517e-02  9.1369950483332102e-02  9.5535030900910298e-02  1.0009274537848746e-01  1.0530498316456216e-01  -1.0405790039806451e-01  -9.8737136616142668e-02  -9.4424084241447631e-02  -9.0255570337094554e-02  -8.6078658140190403e-02  -8.2007468969231043e-02  -7.7968344460762756e-02  -7.3917747208149032e-02  -6.9837918736762691e-02  -6.5724036171778105e-02  -6.1576433162988761e-02  -5.7397096575711057e-02  -5.3188183758697639e-02  -4.8951584929511932e-02  -4.4688827909371183e-02  -4.0401083494528693e-02  -3.6089203631096606e-02  -3.1753782204255690e-02  -2.7395241918689521e-02  -2.3013950980453012e-02  -1.8610368553628760e-02  -1.4185210333599598e-02  -9.7396165926700411e-03  -5.2752973939480920e-03  -7.9462700294469332e-04  3.6993349771649491e-03  8.2029042436804495e-03  1.2711904164603393e-02  1.7221843612441889e-02  2.1728106104278520e-02  2.6226118522231789e-02  3.0711477490157405e-02  3.5180024432826022e-02  3.9627870005195652e-02  4.4051378374215237e-02  4.8447116983793427e-02  5.2811798091551287e-02  5.7142192720883757e-02  6.1435123594601133e-02  6.5687447431174509e-02  6.9896572767098972e-02  7.4061892134927754e-02  7.8187895470488683e-02  8.2296791344582024e-02  8.6420767352005351e-02  9.0699617170766883e-02  9.4859638948604982e-02  9.9372599270713388e-02  1.0453375740023439e-01  -1.0331506041551373e-01  -9.8146648746279652e-02  -9.3745927222312217e-02  -8.9608306268446042e-02  -8.5410312511873421e-02  -8.1344907001007216e-02  -7.7317983696045450e-02  -7.3283345650440243e-02  -6.9222443202000078e-02  -6.5129353426016778e-02  -6.1003847355966208e-02  -5.6847589538888375e-02  -5.2662545222461818e-02  -4.8450502054496837e-02  -4.4212940203826392e-02  -3.9951009808007532e-02  -3.5665543744557604e-02  -3.1357097625718450e-02  -2.7026022806841403e-02  -2.2672579956098247e-02  -1.8297095881078126e-02  -1.3900156332922010e-02  -9.4828135130683739e-03  -5.0467729499036711e-03  -5.9451695498725855e-04  3.8706718871811033e-03  8.3448016897764640e-03  1.2823360175313277e-02  1.7301558593545728e-02  2.1774577449507757e-02  2.6237769071291005e-02  3.0686791542258035e-02  3.5117669940249549e-02  3.9526794956941252e-02  4.3910879031174639e-02  4.8266883585959194e-02  5.2591947866413538e-02  5.6883305379679353e-02  6.1138290325034150e-02  6.5354366393377730e-02  6.9529676835164936e-02  7.3664631239280132e-02  7.7764799576418492e-02  8.1853872428608032e-02  8.5963235970788282e-02  9.0232355842228648e-02  9.4378568784527647e-02  9.8856712110455033e-02  1.0402000536912223e-01  -1.0266388065984519e-01  -9.7524811124923977e-02  -9.3107349355499955e-02  -8.8996549919265117e-02  -8.4787095861438275e-02  -8.0730007113397728e-02  -7.6710735401976343e-02  -7.2687649213396349e-02  -6.8641597687603528e-02  -6.4565569343752863e-02  -6.0458867526879616e-02  -5.6322765386981076e-02  -5.2159000641814994e-02  -4.7969235568268147e-02  -4.3754886970342168e-02  -3.9517064239806991e-02  -3.5256546966022435e-02  -3.0973795270323099e-02  -2.6669001803303220e-02  -2.2342199801236244e-02  -1.7993437594522852e-02  -1.3623017051567442e-02  -9.2317707646893399e-03  -4.8213261109850396e-03  -3.9428572423930999e-04  4.0457402328999094e-03  8.4942769432722661e-03  1.2946273224187864e-02  1.7396458963623143e-02  2.1839682718426727e-02  2.6271162836861678e-02  3.0686624580480323e-02  3.5082331519822305e-02  3.9455038800528225e-02  4.3801903784845310e-02  4.8120377746357690e-02  5.2408113921039487e-02  5.6662878545292450e-02  6.0882567945086494e-02  6.5065254730636735e-02  6.9209776187475633e-02  7.3317292019466351e-02  7.7394202861503572e-02  8.1464522619881713e-02  8.5559401100490817e-02  8.9814999083360963e-02  9.3946452214086693e-02  9.8397960331761181e-02  1.0354440617311141e-01  -1.0207514259826560e-01  -9.6945817481621940e-02  -9.2534076305627322e-02  -8.8434690596344873e-02  -8.4222601510124839e-02  -8.0172719333676798e-02  -7.6158486519205190e-02  -7.2144435268362728e-02  -6.8109855367740613e-02  -6.4047285549084676e-02  -5.9955789246887735e-02  -5.5836312185210200e-02  -5.1690430829428716e-02  -4.7519717897695470e-02  -4.3325554301880301e-02  -3.9109023916218184e-02  -3.4870851387850510e-02  -3.0611372677601875e-02  -2.6330554113068432e-02  -2.2028086199789087e-02  -1.7703577766171427e-02  -1.3356861062336701e-02  -8.9883817846056115e-03  -4.5995974658438301e-03  -1.9326318723462412e-04  4.2265160407469280e-03  8.6545191148102441e-03  1.3084871215400433e-02  1.7511590731113198e-02  2.1929065348711738e-02  2.6332358985018518e-02  3.0717329459601202e-02  3.5080594736757620e-02  3.9419407210325892e-02  4.3731494179777355e-02  4.8014899246040132e-02  5.2267861997451551e-02  5.6488719390715626e-02  6.0675927013796579e-02  6.4828113460250678e-02  6.8944679156371841e-02  7.3027322471664588e-02  7.7082912348169594e-02  8.1135581460253556e-02  8.5216080932357233e-02  8.9458689129339727e-02  9.3577517229143134e-02  9.8008829092926214e-02  1.0314370525505015e-01  -1.0154522688010593e-01  -9.6420137521748744e-02  -9.2014220721500187e-02  -8.7919863134202830e-02  -8.3709240224870821e-02  -7.9664129213962820e-02  -7.5654145032898162e-02  -7.1647455650566877e-02  -6.7621765424149577e-02  -6.3569804601205884e-02  -5.9490443943066275e-02  -5.5384419184227304e-02  -5.1253240729584287e-02  -4.7098454415035261e-02  -4.2921462071497447e-02  -3.8723369387225037e-02  -3.4504881155311223e-02  -3.0266216786801622e-02  -2.6007075992038206e-02  -2.1726696994286001e-02  -1.7424061230280681e-02  -1.3098286271025984e-02  -8.7491918088406020e-03  -4.3779303007194749e-03  1.2531994807000635e-05  4.4173197730460918e-03  8.8300487226126451e-03  1.3243601020971617e-02  1.7650989358845879e-02  2.2046030453599832e-02  2.6423692091029554e-02  3.0780131994175921e-02  3.5112532302185605e-02  3.9418843580224794e-02  4.3697525548056650e-02  4.7947326661523210e-02  5.2167134748409470e-02  5.6355872210947143e-02  6.0512524105801622e-02  6.4636200162573876e-02  6.8726741581483911e-02  7.2786216005723034e-02  7.6821787403807684e-02  8.0857593675397244e-02  8.4924243672545058e-02  8.9154815700478313e-02  9.3263214257628194e-02  9.7680766269146818e-02  1.0280819857886758e-01  -1.0107118329733715e-01  -9.5948113199187376e-02  -9.1545406874846705e-02  -8.7453716278419302e-02  -8.3244785142877406e-02  -7.9202708469217745e-02  -7.5196420965350022e-02  -7.1195334305138497e-02  -6.7176320127852102e-02  -6.3132430310004248e-02  -5.9062328079105511e-02  -5.4966679483336119e-02  -5.0847004935596983e-02  -4.6704892555845624e-02  -4.2541837670345729e-02  -3.8359043755641455e-02  -3.4157272638287273e-02  -2.9936683064579604e-02  -2.5696712033642346e-02  -2.1436052541355992e-02  -1.7152836008696368e-02  -1.2845124007852647e-02  -8.5117393854471819e-03  -4.1533031556016172e-03  2.2691133067096001e-04  4.6227901838917966e-03  9.0260985877135894e-03  1.3427841833108415e-02  1.7819664599164647e-02  2.2194779833753429e-02  2.6548276782044678e-02  3.0876950160236418e-02  3.5178889834781513e-02  3.9453027009356316e-02  4.3698749902184461e-02  4.7915623255515766e-02  5.2103223874709101e-02  5.6261045818201856e-02  6.0388548732811902e-02  6.4485237221071967e-02  6.8551283447735950e-02  7.2589004472295091e-02  7.6605755919137694e-02  8.0625660631630097e-02  8.4679326802800964e-02  8.8899070424004953e-02  9.2998928802497105e-02  9.7406595751408878e-02  1.0252923680505996e-01  -1.0065008638536782e-01  -9.5527832144378114e-02  -9.1126304577533720e-02  -8.7035999430935568e-02  -8.2828064356070208e-02  -7.8787924936509893e-02  -7.4784392757078530e-02  -7.0787181106928498e-02  -6.6772872836254521e-02  -6.2734668774519955e-02  -5.8671079177025083e-02  -5.4582793037113067e-02  -5.0471379137343092e-02  -4.6338528786765441e-02  -4.2185904986606286e-02  -3.8014907376006095e-02  -3.3826476108061651e-02  -2.9620829504620989e-02  -2.5397221219575567e-02  -2.1153751491048273e-02  -1.6887452291872856e-02  -1.2594844936095726e-02  -8.2731489124273135e-03  -3.9220401372097469e-03  4.5475379683875092e-04  4.8490509827975722e-03  9.2495874325410812e-03  1.3644525402334389e-02  1.8023756874417058e-02  2.2380081803310737e-02  2.6709238814822081e-02  3.1009265372105198e-02  3.5279674440606076e-02  3.9520736494443140e-02  4.3732971450195675e-02  4.7916839893310768e-02  5.2072601206960556e-02  5.6200260735916725e-02  6.0299661402823307e-02  6.4370596198459043e-02  6.8413457640078931e-02  7.2430710300975296e-02  7.6429824088817003e-02  8.0434883318045269e-02  8.4476554515090937e-02  8.8686586844216000e-02  9.2779273282216954e-02  9.7179384786769185e-02  1.0229858988498763e-01  -1.0027991891676750e-01  -9.5157819565109797e-02  -9.0756244722157153e-02  -8.6666510232158808e-02  -8.2458831065854610e-02  -7.8419708983878622e-02  -7.4417819859616513e-02  -7.0422937871520694e-02  -6.6411512018636112e-02  -6.2376745211147347e-02  -5.8317064101592209e-02  -5.4233192681547304e-02  -5.0126754559125797e-02  -4.5999579001306183e-02  -4.1853553445940897e-02  -3.7690377767850183e-02  -3.3511327708484535e-02  -2.9316881008292894e-02  -2.5106308555578997e-02  -2.0877174915323794e-02  -1.6625191641756919e-02  -1.2344663170098632e-02  -8.0301830356175243e-03  -3.6796719844277323e-03  7.0248247220521974e-04  5.1044809802784589e-03  9.5099221247474022e-03  1.3902676603945006e-02  1.8270675223418343e-02  2.2607046333932245e-02  2.6909267769904870e-02  3.1177605172751234e-02  3.5413682419523564e-02  3.9619489365093623e-02  4.3796820443222952e-02  4.7947021700552615e-02  5.2070940051452352e-02  5.6168958956276362e-02  6.0241161237222104e-02  6.4287490277762746e-02  6.8308434719047725e-02  7.2306503316494380e-02  7.6289202518971283e-02  8.0280539509680796e-02  8.4311236982388502e-02  8.8512558792592053e-02  9.2599084221936606e-02  9.6993062239776703e-02  1.0210959373426846e-01  -9.9959525426051521e-02  -9.4837224117272162e-02  -9.0434913335765352e-02  -8.6345193767743703e-02  -8.2137156382354234e-02  -7.8098262001623425e-02  -7.4096986482462032e-02  -7.0103096572654774e-02  -6.6092905175449565e-02  -6.2059548438980969e-02  -5.8001381714855763e-02  -5.3919119445901470e-02  -4.9814412509230396e-02  -4.5689212887758707e-02  -4.1545643237284692e-02  -3.7385776202770303e-02  -3.3211382393713906e-02  -2.9023474862945636e-02  -2.4821705990436430e-02  -2.0603376353879054e-02  -1.6362852420662776e-02  -1.2091330693747810e-02  -7.7790554918492332e-03  -3.4204850832810388e-03  9.7910529304144991e-04  5.4011902407397564e-03  9.8203034924093952e-03  1.4214015871226084e-02  1.8568893258227789e-02  2.2880347577168534e-02  2.7149590477852165e-02  3.1380523067548710e-02  3.5577627966812582e-02  3.9744867868200029e-02  4.3885269606817524e-02  4.8000879688086147e-02  5.2092899699344948e-02  5.6161860931240842e-02  6.0207880705218625e-02  6.4230879663201901e-02  6.8231301712908365e-02  7.2211590645403279e-02  7.6179207189622594e-02  8.0158032426096579e-02  8.4178812192260533e-02  8.8372362005491104e-02  9.2453539670790272e-02  9.6842374258110500e-02  1.0195671052418502e-01  -9.9688361606448311e-02  -9.4565681803364832e-02  -9.0162281122243421e-02  -8.6072212552380484e-02  -8.1863381109079592e-02  -7.7824102750799373e-02  -7.3822609308247925e-02  -6.9828626695347937e-02  -6.5818301776131974e-02  -6.1784659454241921e-02  -5.7725943606832274e-02  -5.3642785134069455e-02  -4.9536788505059610e-02  -4.5409942818541979e-02  -4.1264532905981650e-02  -3.7102981174021353e-02  -3.2927636212630715e-02  -2.8740330852756648e-02  -2.4541610009752215e-02  -2.0329167459706823e-02  -1.6096555206153093e-02  -1.1830897295385305e-02  -7.5153411820306406e-03  -3.1369294301984512e-03  1.2980257320786724e-03  5.7574736757963676e-03  1.0199419306535498e-02  1.4593052845379012e-02  1.8926689189165725e-02  2.3202331105082030e-02  2.7428067083173115e-02  3.1613020950223752e-02  3.5764992386319062e-02  3.9889762238871321e-02  4.3991186347626630e-02  4.8071561580362923e-02  5.2132038123605486e-02  5.6172962040477142e-02  6.0194225165414179e-02  6.4195528103421259e-02  6.8177122525480957e-02  7.2141280147500070e-02  7.6095336757596971e-02  8.0062999974977817e-02  8.4074995806755051e-02  8.8261718862821775e-02  9.2338279022857642e-02  9.6722768455890187e-02  1.0183526700942563e-01  -9.9466276570129381e-02  -9.4343159206040084e-02  -8.9938545252560301e-02  -8.5847928253383762e-02  -8.1638061967801698e-02  -7.7598003976091762e-02  -7.3595723709980090e-02  -6.9600885212714791e-02  -6.5589444465192229e-02  -6.1554275130871750e-02  -5.7493450369046850e-02  -5.3407428733303938e-02  -4.9297650551340770e-02  -4.5165982727306292e-02  -4.1014682736416549e-02  -3.6846326604235244e-02  -3.2663713171789108e-02  -2.8469581057569741e-02  -2.4265830162402090e-02  -2.0051709196692007e-02  -1.5821582754694041e-02  -1.1558293025932807e-02  -7.2340883953088886e-03  -2.8185552472643166e-03  1.6804836851185727e-03  6.2016159261155598e-03  1.0672729634933004e-02  1.5055084335181027e-02  1.9348355947568213e-02  2.3569091890932974e-02  2.7736031289296213e-02  3.1864370472821049e-02  3.5964698941740279e-02  4.0043667282172929e-02  4.4105033761363453e-02  4.8150592284072383e-02  5.2180880068566866e-02  5.6195658162573402e-02  6.0194315001528061e-02  6.4176140245328223e-02  6.8141062287055687e-02  7.2091092734224191e-02  7.6033379641312043e-02  7.9991424380690984e-02  8.3995894822973718e-02  8.8176801036827152e-02  9.2249467171496208e-02  9.6630348259339277e-02  1.0174132228041013e-01  -9.9293354290687363e-02  -9.4169825129459983e-02  -8.9764050557498837e-02  -8.5672832508032384e-02  -8.1461887641303826e-02  -7.7420889589758526e-02  -7.3417552310463235e-02  -6.9421468990251936e-02  -6.5408397150772568e-02  -6.1371033829549150e-02  -5.7307234165320457e-02  -5.3217204507578643e-02  -4.9102092996234324e-02  -4.4963445477105540e-02  -4.0803201035559775e-02  -3.6623687804078250e-02  -3.2427670061436917e-02  -2.8218322359057229e-02  -2.3998790394430047e-02  -1.9771081074353790e-02  -1.5533276457283526e-02  -1.1267026855646759e-02  -6.9302270702555424e-03  -2.4494603321524090e-03  2.1608143487633438e-03  6.7748997222441560e-03  1.1269432790209685e-02  1.5607980619488425e-02  1.9825296780765264e-02  2.3963542734744932e-02  2.8053859747530017e-02  3.2115706431255588e-02  3.6160046108814410e-02  4.0192392442014245e-02  4.4214979198253457e-02  4.8228155199889676e-02  5.2231248155960558e-02  5.6223065825632530e-02  6.0202269145128835e-02  6.4167601633462593e-02  6.8118586618856350e-02  7.2056928304453816e-02  7.5989555523697364e-02  7.9939756503316611e-02  8.3938117172662932e-02  8.8114317939480422e-02  9.2183851330790392e-02  9.6561868446000523e-02  1.0167162805692105e-01  -9.9169791553339895e-02  -9.4045940502680558e-02  -8.9639197578036567e-02  -8.5547453022755932e-02  -8.1335569165723376e-02  -7.7293699704588478e-02  -7.3289335572231648e-02  -6.9292005952510283e-02  -6.5277289446648387e-02  -6.1237712363047959e-02  -5.7170905213947902e-02  -5.3076791857418461e-02  -4.8956155926404891e-02  -4.4810076526950578e-02  -4.0639903902684051e-02  -3.6447243611903400e-02  -3.2234036594883893e-02  -2.8002659163323868e-02  -2.3755978698989488e-02  -1.9497773262020041e-02  -1.5231542677610180e-02  -1.0948133015442774e-02  -6.5968935187185156e-03  -2.0045935102919786e-03  2.7825335940464251e-03  7.5186033665201272e-03  1.2002957728900931e-02  1.6230188833929300e-02  2.0319409045305183e-02  2.4345775563355404e-02  2.8346534714460397e-02  3.2338623292222111e-02  3.6328793838339951e-02  4.0318746685936081e-02  4.4307728957219107e-02  4.8293879165522906e-02  5.2274932481678076e-02  5.6248563823663014e-02  6.0212631837309273e-02  6.4165310990788343e-02  6.8105720033446032e-02  7.2035268399790769e-02  7.5960677015163722e-02  7.9905046998102552e-02  8.3898878496823870e-02  8.8071599091742225e-02  9.2138818479459567e-02  9.6514753982566745e-02  1.0162362485686173e-01  -9.9095802202004285e-02  -9.3971765486029854e-02  -8.9564351780858809e-02  -8.5472255003966657e-02  -8.1259722286666322e-02  -7.7217243438764849e-02  -7.3212142583060441e-02  -6.9213909245163074e-02  -6.5197994249453606e-02  -6.1156800638888259e-02  -5.7087788625303323e-02  -5.2990656984372692e-02  -4.8865879665782111e-02  -4.4714104574403238e-02  -4.0536071163581752e-02  -3.6332501635377178e-02  -3.2104035941850101e-02  -2.7851104507227963e-02  -2.3573859692825234e-02  -1.9272853603519116e-02  -1.4950094289632058e-02  -1.0609429048293855e-02  -6.2264936457447507e-03  -1.4800835657936119e-03  3.5085633499822334e-03  8.3915393663464167e-03  1.2814328797800622e-02  1.6825909476400263e-02  2.0740966309141629e-02  2.4645570386288878e-02  2.8563216333738740e-02  3.2497293468638791e-02  3.6445755272022110e-02  4.0404839182646993e-02  4.4370349720558630e-02  4.8338207749653070e-02  5.2304695701418054e-02  5.6266524289385549e-02  6.0220904236327318e-02  6.4165568947768814e-02  6.8099333129373302e-02  7.2023391474089316e-02  7.5944313909902625e-02  7.9885073587012037e-02  8.3876101481091550e-02  8.8046669360209190e-02  9.2112450345267410e-02  9.6487129577733532e-02  1.0159545736121883e-01  -9.9071546170870273e-02  -9.3947487675231464e-02  -8.9539767448507002e-02  -8.5447555520626189e-02  -8.1234762429900603e-02  -7.7192064505694546e-02  -7.3186692978816872e-02  -6.9188135679410609e-02  -6.5171792660848757e-02  -6.1130027253744869e-02  -5.7060240153080539e-02  -5.2962050692016469e-02  -4.8835819840387339e-02  -4.4682032476286111e-02  -4.0501185857356889e-02  -3.6293629040258020e-02  -3.2059402999609993e-02  -2.7797934575812526e-02  -2.3507663865922158e-02  -1.9185949982521461e-02  -1.4830006583043081e-02  -1.0441710071552554e-02  -6.0406068115039452e-03  -1.0943984682389590e-03  3.9266548244174396e-03  8.8792122575279599e-03  1.3413378597332598e-02  1.7162932551974382e-02  2.09372828672