<?xml version="1.0"?>
<VTKFile type="UnstructuredGrid"  version="0.1"  >
<UnstructuredGrid>
<Piece  NumberOfPoints="1617" NumberOfCells="3072">
<Points>
<DataArray  type="Float64"  NumberOfComponents="3"  format="ascii">0 0 0  0.03125 0 0  0.0625 0 0  0.09375 0 0  0.125 0 0  0.15625 0 0  0.1875 0 0  0.21875 0 0  0.25 0 0  0.28125 0 0  0.3125 0 0  0.34375 0 0  0.375 0 0  0.40625 0 0  0.4375 0 0  0.46875 0 0  0.5 0 0  0.53125 0 0  0.5625 0 0  0.59375 0 0  0.625 0 0  0.65625 0 0  0.6875 0 0  0.71875 0 0  0.75 0 0  0.78125 0 0  0.8125 0 0  0.84375 0 0  0.875 0 0  0.90625 0 0  0.9375 0 0  0.96875 0 0  1 0 0  1.03125 0 0  1.0625 0 0  1.09375 0 0  1.125 0 0  1.15625 0 0  1.1875 0 0  1.21875 0 0  1.25 0 0  1.28125 0 0  1.3125 0 0  1.34375 0 0  1.375 0 0  1.40625 0 0  1.4375 0 0  1.46875 0 0  1.5 0 0  0 0.03125 0  0.03125 0.03125 0  0.0625 0.03125 0  0.09375 0.03125 0  0.125 0.03125 0  0.15625 0.03125 0  0.1875 0.03125 0  0.21875 0.03125 0  0.25 0.03125 0  0.28125 0.03125 0  0.3125 0.03125 0  0.34375 0.03125 0  0.375 0.03125 0  0.40625 0.03125 0  0.4375 0.03125 0  0.46875 0.03125 0  0.5 0.03125 0  0.53125 0.03125 0  0.5625 0.03125 0  0.59375 0.03125 0  0.625 0.03125 0  0.65625 0.03125 0  0.6875 0.03125 0  0.71875 0.03125 0  0.75 0.03125 0  0.78125 0.03125 0  0.8125 0.03125 0  0.84375 0.03125 0  0.875 0.03125 0  0.90625 0.03125 0  0.9375 0.03125 0  0.96875 0.03125 0  1 0.03125 0  1.03125 0.03125 0  1.0625 0.03125 0  1.09375 0.03125 0  1.125 0.03125 0  1.15625 0.03125 0  1.1875 0.03125 0  1.21875 0.03125 0  1.25 0.03125 0  1.28125 0.03125 0  1.3125 0.03125 0  1.34375 0.03125 0  1.375 0.03125 0  1.40625 0.03125 0  1.4375 0.03125 0  1.46875 0.03125 0  1.5 0.03125 0  0 0.0625 0  0.03125 0.0625 0  0.0625 0.0625 0  0.09375 0.0625 0  0.125 0.0625 0  0.15625 0.0625 0  0.1875 0.0625 0  0.21875 0.0625 0  0.25 0.0625 0  0.28125 0.0625 0  0.3125 0.0625 0  0.34375 0.0625 0  0.375 0.0625 0  0.40625 0.0625 0  0.4375 0.0625 0  0.46875 0.0625 0  0.5 0.0625 0  0.53125 0.0625 0  0.5625 0.0625 0  0.59375 0.0625 0  0.625 0.0625 0  0.65625 0.0625 0  0.6875 0.0625 0  0.71875 0.0625 0  0.75 0.0625 0  0.78125 0.0625 0  0.8125 0.0625 0  0.84375 0.0625 0  0.875 0.0625 0  0.90625 0.0625 0  0.9375 0.0625 0  0.96875 0.0625 0  1 0.0625 0  1.03125 0.0625 0  1.0625 0.0625 0  1.09375 0.0625 0  1.125 0.0625 0  1.15625 0.0625 0  1.1875 0.0625 0  1.21875 0.0625 0  1.25 0.0625 0  1.28125 0.0625 0  1.3125 0.0625 0  1.34375 0.0625 0  1.375 0.0625 0  1.40625 0.0625 0  1.4375 0.0625 0  1.46875 0.0625 0  1.5 0.0625 0  0 0.09375 0  0.03125 0.09375 0  0.0625 0.09375 0  0.09375 0.09375 0  0.125 0.09375 0  0.15625 0.09375 0  0.1875 0.09375 0  0.21875 0.09375 0  0.25 0.09375 0  0.28125 0.09375 0  0.3125 0.09375 0  0.34375 0.09375 0  0.375 0.09375 0  0.40625 0.09375 0  0.4375 0.09375 0  0.46875 0.09375 0  0.5 0.09375 0  0.53125 0.09375 0  0.5625 0.09375 0  0.59375 0.09375 0  0.625 0.09375 0  0.65625 0.09375 0  0.6875 0.09375 0  0.71875 0.09375 0  0.75 0.09375 0  0.78125 0.09375 0  0.8125 0.09375 0  0.84375 0.09375 0  0.875 0.09375 0  0.90625 0.09375 0  0.9375 0.09375 0  0.96875 0.09375 0  1 0.09375 0  1.03125 0.09375 0  1.0625 0.09375 0  1.09375 0.09375 0  1.125 0.09375 0  1.15625 0.09375 0  1.1875 0.09375 0  1.21875 0.09375 0  1.25 0.09375 0  1.28125 0.09375 0  1.3125 0.09375 0  1.34375 0.09375 0  1.375 0.09375 0  1.40625 0.09375 0  1.4375 0.09375 0  1.46875 0.09375 0  1.5 0.09375 0  0 0.125 0  0.03125 0.125 0  0.0625 0.125 0  0.09375 0.125 0  0.125 0.125 0  0.15625 0.125 0  0.1875 0.125 0  0.21875 0.125 0  0.25 0.125 0  0.28125 0.125 0  0.3125 0.125 0  0.34375 0.125 0  0.375 0.125 0  0.40625 0.125 0  0.4375 0.125 0  0.46875 0.125 0  0.5 0.125 0  0.53125 0.125 0  0.5625 0.125 0  0.59375 0.125 0  0.625 0.125 0  0.65625 0.125 0  0.6875 0.125 0  0.71875 0.125 0  0.75 0.125 0  0.78125 0.125 0  0.8125 0.125 0  0.84375 0.125 0  0.875 0.125 0  0.90625 0.125 0  0.9375 0.125 0  0.96875 0.125 0  1 0.125 0  1.03125 0.125 0  1.0625 0.125 0  1.09375 0.125 0  1.125 0.125 0  1.15625 0.125 0  1.1875 0.125 0  1.21875 0.125 0  1.25 0.125 0  1.28125 0.125 0  1.3125 0.125 0  1.34375 0.125 0  1.375 0.125 0  1.40625 0.125 0  1.4375 0.125 0  1.46875 0.125 0  1.5 0.125 0  0 0.15625 0  0.03125 0.15625 0  0.0625 0.15625 0  0.09375 0.15625 0  0.125 0.15625 0  0.15625 0.15625 0  0.1875 0.15625 0  0.21875 0.15625 0  0.25 0.15625 0  0.28125 0.15625 0  0.3125 0.15625 0  0.34375 0.15625 0  0.375 0.15625 0  0.40625 0.15625 0  0.4375 0.15625 0  0.46875 0.15625 0  0.5 0.15625 0  0.53125 0.15625 0  0.5625 0.15625 0  0.59375 0.15625 0  0.625 0.15625 0  0.65625 0.15625 0  0.6875 0.15625 0  0.71875 0.15625 0  0.75 0.15625 0  0.78125 0.15625 0  0.8125 0.15625 0  0.84375 0.15625 0  0.875 0.15625 0  0.90625 0.15625 0  0.9375 0.15625 0  0.96875 0.15625 0  1 0.15625 0  1.03125 0.15625 0  1.0625 0.15625 0  1.09375 0.15625 0  1.125 0.15625 0  1.15625 0.15625 0  1.1875 0.15625 0  1.21875 0.15625 0  1.25 0.15625 0  1.28125 0.15625 0  1.3125 0.15625 0  1.34375 0.15625 0  1.375 0.15625 0  1.40625 0.15625 0  1.4375 0.15625 0  1.46875 0.15625 0  1.5 0.15625 0  0 0.1875 0  0.03125 0.1875 0  0.0625 0.1875 0  0.09375 0.1875 0  0.125 0.1875 0  0.15625 0.1875 0  0.1875 0.1875 0  0.21875 0.1875 0  0.25 0.1875 0  0.28125 0.1875 0  0.3125 0.1875 0  0.34375 0.1875 0  0.375 0.1875 0  0.40625 0.1875 0  0.4375 0.1875 0  0.46875 0.1875 0  0.5 0.1875 0  0.53125 0.1875 0  0.5625 0.1875 0  0.59375 0.1875 0  0.625 0.1875 0  0.65625 0.1875 0  0.6875 0.1875 0  0.71875 0.1875 0  0.75 0.1875 0  0.78125 0.1875 0  0.8125 0.1875 0  0.84375 0.1875 0  0.875 0.1875 0  0.90625 0.1875 0  0.9375 0.1875 0  0.96875 0.1875 0  1 0.1875 0  1.03125 0.1875 0  1.0625 0.1875 0  1.09375 0.1875 0  1.125 0.1875 0  1.15625 0.1875 0  1.1875 0.1875 0  1.21875 0.1875 0  1.25 0.1875 0  1.28125 0.1875 0  1.3125 0.1875 0  1.34375 0.1875 0  1.375 0.1875 0  1.40625 0.1875 0  1.4375 0.1875 0  1.46875 0.1875 0  1.5 0.1875 0  0 0.21875 0  0.03125 0.21875 0  0.0625 0.21875 0  0.09375 0.21875 0  0.125 0.21875 0  0.15625 0.21875 0  0.1875 0.21875 0  0.21875 0.21875 0  0.25 0.21875 0  0.28125 0.21875 0  0.3125 0.21875 0  0.34375 0.21875 0  0.375 0.21875 0  0.40625 0.21875 0  0.4375 0.21875 0  0.46875 0.21875 0  0.5 0.21875 0  0.53125 0.21875 0  0.5625 0.21875 0  0.59375 0.21875 0  0.625 0.21875 0  0.65625 0.21875 0  0.6875 0.21875 0  0.71875 0.21875 0  0.75 0.21875 0  0.78125 0.21875 0  0.8125 0.21875 0  0.84375 0.21875 0  0.875 0.21875 0  0.90625 0.21875 0  0.9375 0.21875 0  0.96875 0.21875 0  1 0.21875 0  1.03125 0.21875 0  1.0625 0.21875 0  1.09375 0.21875 0  1.125 0.21875 0  1.15625 0.21875 0  1.1875 0.21875 0  1.21875 0.21875 0  1.25 0.21875 0  1.28125 0.21875 0  1.3125 0.21875 0  1.34375 0.21875 0  1.375 0.21875 0  1.40625 0.21875 0  1.4375 0.21875 0  1.46875 0.21875 0  1.5 0.21875 0  0 0.25 0  0.03125 0.25 0  0.0625 0.25 0  0.09375 0.25 0  0.125 0.25 0  0.15625 0.25 0  0.1875 0.25 0  0.21875 0.25 0  0.25 0.25 0  0.28125 0.25 0  0.3125 0.25 0  0.34375 0.25 0  0.375 0.25 0  0.40625 0.25 0  0.4375 0.25 0  0.46875 0.25 0  0.5 0.25 0  0.53125 0.25 0  0.5625 0.25 0  0.59375 0.25 0  0.625 0.25 0  0.65625 0.25 0  0.6875 0.25 0  0.71875 0.25 0  0.75 0.25 0  0.78125 0.25 0  0.8125 0.25 0  0.84375 0.25 0  0.875 0.25 0  0.90625 0.25 0  0.9375 0.25 0  0.96875 0.25 0  1 0.25 0  1.03125 0.25 0  1.0625 0.25 0  1.09375 0.25 0  1.125 0.25 0  1.15625 0.25 0  1.1875 0.25 0  1.21875 0.25 0  1.25 0.25 0  1.28125 0.25 0  1.3125 0.25 0  1.34375 0.25 0  1.375 0.25 0  1.40625 0.25 0  1.4375 0.25 0  1.46875 0.25 0  1.5 0.25 0  0 0.28125 0  0.03125 0.28125 0  0.0625 0.28125 0  0.09375 0.28125 0  0.125 0.28125 0  0.15625 0.28125 0  0.1875 0.28125 0  0.21875 0.28125 0  0.25 0.28125 0  0.28125 0.28125 0  0.3125 0.28125 0  0.34375 0.28125 0  0.375 0.28125 0  0.40625 0.28125 0  0.4375 0.28125 0  0.46875 0.28125 0  0.5 0.28125 0  0.53125 0.28125 0  0.5625 0.28125 0  0.59375 0.28125 0  0.625 0.28125 0  0.65625 0.28125 0  0.6875 0.28125 0  0.71875 0.28125 0  0.75 0.28125 0  0.78125 0.28125 0  0.8125 0.28125 0  0.84375 0.28125 0  0.875 0.28125 0  0.90625 0.28125 0  0.9375 0.28125 0  0.96875 0.28125 0  1 0.28125 0  1.03125 0.28125 0  1.0625 0.28125 0  1.09375 0.28125 0  1.125 0.28125 0  1.15625 0.28125 0  1.1875 0.28125 0  1.21875 0.28125 0  1.25 0.28125 0  1.28125 0.28125 0  1.3125 0.28125 0  1.34375 0.28125 0  1.375 0.28125 0  1.40625 0.28125 0  1.4375 0.28125 0  1.46875 0.28125 0  1.5 0.28125 0  0 0.3125 0  0.03125 0.3125 0  0.0625 0.3125 0  0.09375 0.3125 0  0.125 0.3125 0  0.15625 0.3125 0  0.1875 0.3125 0  0.21875 0.3125 0  0.25 0.3125 0  0.28125 0.3125 0  0.3125 0.3125 0  0.34375 0.3125 0  0.375 0.3125 0  0.40625 0.3125 0  0.4375 0.3125 0  0.46875 0.3125 0  0.5 0.3125 0  0.53125 0.3125 0  0.5625 0.3125 0  0.59375 0.3125 0  0.625 0.3125 0  0.65625 0.3125 0  0.6875 0.3125 0  0.71875 0.3125 0  0.75 0.3125 0  0.78125 0.3125 0  0.8125 0.3125 0  0.84375 0.3125 0  0.875 0.3125 0  0.90625 0.3125 0  0.9375 0.3125 0  0.96875 0.3125 0  1 0.3125 0  1.03125 0.3125 0  1.0625 0.3125 0  1.09375 0.3125 0  1.125 0.3125 0  1.15625 0.3125 0  1.1875 0.3125 0  1.21875 0.3125 0  1.25 0.3125 0  1.28125 0.3125 0  1.3125 0.3125 0  1.34375 0.3125 0  1.375 0.3125 0  1.40625 0.3125 0  1.4375 0.3125 0  1.46875 0.3125 0  1.5 0.3125 0  0 0.34375 0  0.03125 0.34375 0  0.0625 0.34375 0  0.09375 0.34375 0  0.125 0.34375 0  0.15625 0.34375 0  0.1875 0.34375 0  0.21875 0.34375 0  0.25 0.34375 0  0.28125 0.34375 0  0.3125 0.34375 0  0.34375 0.34375 0  0.375 0.34375 0  0.40625 0.34375 0  0.4375 0.34375 0  0.46875 0.34375 0  0.5 0.34375 0  0.53125 0.34375 0  0.5625 0.34375 0  0.59375 0.34375 0  0.625 0.34375 0  0.65625 0.34375 0  0.6875 0.34375 0  0.71875 0.34375 0  0.75 0.34375 0  0.78125 0.34375 0  0.8125 0.34375 0  0.84375 0.34375 0  0.875 0.34375 0  0.90625 0.34375 0  0.9375 0.34375 0  0.96875 0.34375 0  1 0.34375 0  1.03125 0.34375 0  1.0625 0.34375 0  1.09375 0.34375 0  1.125 0.34375 0  1.15625 0.34375 0  1.1875 0.34375 0  1.21875 0.34375 0  1.25 0.34375 0  1.28125 0.34375 0  1.3125 0.34375 0  1.34375 0.34375 0  1.375 0.34375 0  1
[...]
<PointData  Scalars="f_49"> 
<DataArray  type="Float64"  Name="f_49"  format="ascii">-1.0453539339510555e-01  -9.8819825335963604e-02  -9.4641626662827300e-02  -9.0705161349133284e-02  -8.6770299581356736e-02  -8.2810216123269345e-02  -7.8802776823314505e-02  -7.4746813763381700e-02  -7.0646730464624483e-02  -6.6507557247953694e-02  -6.2333586566204843e-02  -5.8128180082705226e-02  -5.3893947615443048e-02  -4.9632869875017777e-02  -4.5346399223010300e-02  -4.1035537510171811e-02  -3.6700907993140200e-02  -3.2342838570304379e-02  -2.7961464588232149e-02  -2.3556856017098234e-02  -1.9129167518382739e-02  -1.4678802927001326e-02  -1.0206578889187436e-02  -5.7138671977109657e-03  -1.2026941777790665e-03  3.3242206919088836e-03  7.8634950511273193e-03  1.2411179312400735e-02  1.6962900567983694e-02  2.1514032788143671e-02  2.6059862982792684e-02  3.0595739165374947e-02  3.5117168677497639e-02  3.9619891680156553e-02  4.4099868207391341e-02  4.8553301252093166e-02  5.2976475402818940e-02  5.7365842791336996e-02  6.1717550740990397e-02  6.6027929395472085e-02  7.0292022258473363e-02  7.4506096072042810e-02  7.8661302272254069e-02  8.2760586505258055e-02  8.6776973169655727e-02  9.0813782936334408e-02  9.4611102385094722e-02  9.9291892391365072e-02  1.0438902669756639e-01  -1.0464324455001701e-01  -9.8651972786586772e-02  -9.4386900610743535e-02  -9.0415897311649882e-02  -8.6461774339715691e-02  -8.2499584606481671e-02  -7.8495775938549436e-02  -7.4445673872089294e-02  -7.0352262016292036e-02  -6.6220081858422403e-02  -6.2053022999870026e-02  -5.7854261799939515e-02  -5.3626330521346466e-02  -4.9371206844276871e-02  -4.5090392687136743e-02  -4.0784972874970508e-02  -3.6455679409458042e-02  -3.2102968459398092e-02  -2.7727118248335854e-02  -2.3328352119025349e-02  -1.8906984791453047e-02  -1.4463583281351782e-02  -9.9991267081848169e-03  -5.5151437212351663e-03  -1.0138049459623721e-03  3.5020476889379825e-03  8.0289423168560959e-03  1.2562883310630275e-02  1.7099503037713251e-02  2.1634233495485898e-02  2.6162469153989093e-02  3.0679702449217559e-02  3.5181613011200256e-02  3.9664118192908361e-02  4.4123365082095509e-02  4.8555712863792316e-02  5.2957631604819984e-02  5.7325675926167725e-02  6.1656244887851638e-02  6.5945706557434203e-02  7.0189710437444749e-02  7.4384480618825202e-02  7.8523403585138943e-02  8.2609435918865479e-02  8.6626365933076002e-02  9.0671247910887279e-02  9.4565787534948015e-02  9.9255671033588996e-02  1.0480617260933354e-01  -1.0353651938734985e-01  -9.7962479316600681e-02  -9.3553167393108538e-02  -8.9589778564881789e-02  -8.5630817508854415e-02  -8.1679879844506642e-02  -7.7696284230320961e-02  -7.3671109274866670e-02  -6.9605848091198894e-02  -6.5503700329301681e-02  -6.1367695706171788e-02  -5.7200550466270102e-02  -5.3004547199399225e-02  -4.8781565489983726e-02  -4.4533087009638213e-02  -4.0260222040992603e-02  -3.5963750700522247e-02  -3.1644182303294521e-02  -2.7301842376042031e-02  -2.2936990762317255e-02  -1.8549970457264257e-02  -1.4141378811784336e-02  -9.7122431727802820e-03  -5.2641747046225365e-03  -7.9947079464339963e-04  3.6788586057584136e-03  8.1671507671257845e-03  1.2661227096058381e-02  1.7156579234102434e-02  2.1648569648264816e-02  2.6132609420366187e-02  3.0604295495254622e-02  3.5059485401914295e-02  3.9494333729913289e-02  4.3905255297176468e-02  4.8288910393694109e-02  5.2642064932289609e-02  5.6961631339973250e-02  6.1244346945922484e-02  6.5487126768242435e-02  6.9686183680464836e-02  7.3838818893890962e-02  7.7940029741460859e-02  8.1994194230102901e-02  8.5993125004288615e-02  9.0023968879451105e-02  9.3930893416393518e-02  9.8545415447560764e-02  1.0397056398049566e-01  -1.0276615267171697e-01  -9.7363808843550434e-02  -9.2862060381191949e-02  -8.8944688564893529e-02  -8.4977403468699642e-02  -8.1032538000040427e-02  -7.7059325702720838e-02  -7.3048810139216699e-02  -6.9001603129665953e-02  -6.4919562897186506e-02  -6.0805108332363210e-02  -5.6660525105887656e-02  -5.2487866089825100e-02  -4.8288889995018305e-02  -4.4065020790318744e-02  -3.9817348368370663e-02  -3.5546637696985725e-02  -3.1253366083779641e-02  -2.6937794451024101e-02  -2.2600080693390919e-02  -1.8240438961844220e-02  -1.3859337842686358e-02  -9.4577162323740555e-03  -5.0371806117497147e-03  -6.0013875423740566e-04  3.8501698628986098e-03  8.3097640814038445e-03  1.2774116254029907e-02  1.7238407370496481e-02  2.1697786672966502e-02  2.6147584720812671e-02  3.0583456995402127e-02  3.5001443957604080e-02  3.9397976934468691e-02  4.3769815236925018e-02  4.8113998445995371e-02  5.2427710211366288e-02  5.6708288297568687e-02  6.0952982232674396e-02  6.5159224674311872e-02  6.9324028912181826e-02  7.3445449896954201e-02  7.7519944958596584e-02  8.1553092709699515e-02  8.5538152848629673e-02  8.9563144706080594e-02  9.3465469426706388e-02  9.8036867133276542e-02  1.0343687700318280e-01  -1.0211548876443804e-01  -9.6741982856726944e-02  -9.2219561048519430e-02  -8.8336259545793175e-02  -8.4361395631564806e-02  -8.0424961326183708e-02  -7.6459877687075434e-02  -7.2461820309729752e-02  -6.8429708122995661e-02  -6.4364675470051022e-02  -6.0268775439003539e-02  -5.6143968199486097e-02  -5.1992145197022117e-02  -4.7814954424584839e-02  -4.3613769745948446e-02  -3.9389649519715200e-02  -3.5143313840846027e-02  -3.0875153293915471e-02  -2.6585276853528055e-02  -2.2273618237280853e-02  -1.7940111486555214e-02  -1.3584934712944892e-02  -9.2087976208333547e-03  -4.8132200637223529e-03  -4.0072792414321592e-04  4.0251038718980186e-03  8.4597931831191658e-03  1.2898249454279856e-02  1.7335148776462330e-02  2.1765291036115818e-02  2.6183863759992026e-02  3.0586588300665407e-02  3.4969746000697868e-02  3.9330136232951646e-02  4.3664961703484453e-02  4.7971748168195084e-02  5.2248175549516829e-02  5.6492101040068091e-02  6.0701288550371886e-02  6.4873765191277008e-02  6.9007121516843128e-02  7.3100193302619229e-02  7.7150074246419523e-02  8.1163130242881701e-02  8.5132833759461471e-02  8.9146219840582658e-02  9.3037445606374294e-02  9.7588595324093197e-02  1.0297026103443374e-01  -1.0153978007803818e-01  -9.6169386339510970e-02  -9.1646044881373248e-02  -8.7776443912494354e-02  -8.3799688399376265e-02  -7.9871064004716663e-02  -7.5912259527954662e-02  -7.1924528782927238e-02  -6.7904398262462834e-02  -6.3853129592220795e-02  -5.9772418379578050e-02  -5.5664061282105076e-02  -5.1529844549643669e-02  -4.7371359139865885e-02  -4.3189970037740909e-02  -3.8986724702424772e-02  -3.4762303280670176e-02  -3.0516984581061734e-02  -2.6250659510836789e-02  -2.1962920739948561e-02  -1.7653255333765570e-02  -1.3321355060772061e-02  -8.9675202141539234e-03  -4.5930804871755840e-03  -2.0070654495084922e-04  4.2055191742387168e-03  8.6203358275235877e-03  1.3037786604302302e-02  1.7451796528984088e-02  2.1856678112332863e-02  2.6247454172406648e-02  3.0619981420624009e-02  3.4970905432669175e-02  3.9297533060262978e-02  4.3597643594505256e-02  4.7869354086644320e-02  5.2110924059231657e-02  5.6320762480903210e-02  6.0497174293940394e-02  6.4638699393524859e-02  6.8743477997638414e-02  7.2810814163998719e-02  7.6838359628900191e-02  8.0832637371912680e-02  8.4787339929954103e-02  8.8788770942363607e-02  9.2670963884765964e-02  9.7211462371705623e-02  1.0258899836153884e-01  -1.0102461582010022e-01  -9.5651715105770904e-02  -9.1127390925875601e-02  -8.7263040304245920e-02  -8.3288037608665960e-02  -7.9365144338602672e-02  -7.5411741542451602e-02  -7.1432303144322570e-02  -6.7421537569189283e-02  -6.3381239282780888e-02  -5.9312698433873684e-02  -5.5217712871000919e-02  -5.1097999276038281e-02  -4.6955173740217133e-02  -4.2790644297973392e-02  -3.8605500304081747e-02  -3.4400423004257767e-02  -3.0175591372897523e-02  -2.5930641522247361e-02  -2.1664714801610956e-02  -1.7376656384675272e-02  -1.3065412023428348e-02  -8.7306127675061251e-03  -4.3732429996250523e-03  3.8317307319272019e-06  4.3957358655509855e-03  8.7959866566746526e-03  1.3197311375381016e-02  1.7592568284230087e-02  2.1975465631031903e-02  2.6340925629287630e-02  3.0685120349969085e-02  3.5005282765127224e-02  3.9299439665541509e-02  4.3566116702670098e-02  4.7804141531404137e-02  5.2012417160167038e-02  5.6189929576958703e-02  6.0335494200018623e-02  6.4448122734697549e-02  6.8526373949655578e-02  7.2569946111869676e-02  7.6576802494944168e-02  8.0553631743562629e-02  8.4494182531174092e-02  8.8484547496032948e-02  9.2359274444163433e-02  9.6894618905665572e-02  1.0227167320615124e-01  -1.0056339221321621e-01  -9.5187368203261971e-02  -9.0660694485487539e-02  -8.6798465018711454e-02  -8.2825507197703610e-02  -7.8906604331197019e-02  -7.4957672052922183e-02  -7.0984382415852337e-02  -6.6980654804766060e-02  -6.2948682056303829e-02  -5.8889422878967132e-02  -5.4804765216972917e-02  -5.0696391129744403e-02  -4.6566019740598000e-02  -4.2415161094251488e-02  -3.8245031072678640e-02  -3.4056392714430846e-02  -2.9849388634113759e-02  -2.5623411229543796e-02  -2.1377059575648675e-02  -1.7108307355080496e-02  -1.2814991971128583e-02  -8.4956698865525423e-03  -4.1507189392934385e-03  2.1671780216130519e-04  4.6004801389010665e-03  8.9921256193944577e-03  1.3382381743514461e-02  1.7762651597270578e-02  2.2126008793787691e-02  2.6467513541684490e-02  3.0784016210028398e-02  3.5073702291945896e-02  3.9335614574469956e-02  4.3569228237090904e-02  4.7774194890896786e-02  5.1950103950877541e-02  5.6096504363188922e-02  6.0212676027944417e-02  6.4298017215988726e-02  6.8351422863101446e-02  7.2372857419384498e-02  7.6360535057470938e-02  8.0321202000006781e-02  8.4248772538506808e-02  8.8229158722212833e-02  9.2097829434307540e-02  9.6630203145442919e-02  1.0200777714821692e-01  -1.0015296115432827e-01  -9.4773958762641330e-02  -9.0244177285398991e-02  -8.6382609266882002e-02  -8.2411048018440472e-02  -7.8494838348171031e-02  -7.4549135876352771e-02  -7.0580051196409199e-02  -6.6581270585986022e-02  -6.2555124921631330e-02  -5.8502391911112742e-02  -5.4425051779003003e-02  -5.0324793746580755e-02  -4.6203491315720428e-02  -4.2062822825651255e-02  -3.7904235721303567e-02  -3.3728699231988069e-02  -2.9536452704165165e-02  -2.5326736665000384e-02  -2.1097569100556032e-02  -1.6845798639685969e-02  -1.2567638496405216e-02  -8.2599030966210452e-03  -3.9218868287589212e-03  4.4286086306572013e-04  4.8260107664190493e-03  9.2158833057083799e-03  1.3600160061000493e-02  1.7968381533706182e-02  2.2313205622350719e-02  2.6630407439929026e-02  3.0918165630000910e-02  3.5176161526768300e-02  3.9404824242541762e-02  4.3604782483295731e-02  4.7776587406100211e-02  5.1920503205382960e-02  5.6036579145299345e-02  6.0124466459563215e-02  6.4183848802310400e-02  6.8213845549758817e-02  7.2214596458599234e-02  7.6184470106437210e-02  8.0130242145215871e-02  8.4045963871081569e-02  8.8017412934900938e-02  9.1880950045069298e-02  9.6411295144816514e-02  1.0178969156482155e-01  -9.9791637311573436e-02  -9.4409931603694791e-02  -8.9876798550165921e-02  -8.6015142592554009e-02  -8.2044245329543047e-02  -7.8129610772277813e-02  -7.4185859067611160e-02  -7.0219311687151412e-02  -6.6223554799915013e-02  -6.2200919233487084e-02  -5.8152100688128976e-02  -5.4079124435469667e-02  -4.9983713076969596e-02  -4.5867907536405454e-02  -4.1733610338829483e-02  -3.7582604276452568e-02  -3.3416227510113833e-02  -2.9235033900234825e-02  -2.5038334155171958e-02  -2.0823646280368053e-02  -1.6586476410859377e-02  -1.2320685401160228e-02  -8.0202120804681327e-03  -3.6823445812312213e-03  6.8877169546846680e-04  5.0809609385270450e-03  9.4770097253248017e-03  1.3859990816973542e-02  1.8217383559548501e-02  2.2542257912071616e-02  2.6832288299987045e-02  3.1088030188919522e-02  3.5311373995183401e-02  3.9504515177298707e-02  4.3669366305370633e-02  4.7807352924657646e-02  5.1919307126017757e-02  5.6005637206670060e-02  6.0066219235633385e-02  6.4100881780205080e-02  6.8108845772338583e-02  7.2090317259478995e-02  7.6043738319190923e-02  7.9975852851212947e-02  8.3880823144744682e-02  8.7844252140063514e-02  9.1703307843107942e-02  9.6232011794423797e-02  1.0161115031349029e-01  -9.9478554697305904e-02  -9.4094448398661157e-02  -8.9558015552264877e-02  -8.5695851183680699e-02  -8.1724986220447826e-02  -7.7810996193449014e-02  -7.3868079134590633e-02  -6.9902656842998762e-02  -6.5908216406142112e-02  -6.1887034609064848e-02  -5.7839734550072859e-02  -5.3768321568063784e-02  -4.9674534479439182e-02  -4.5560544723669529e-02  -4.1428489213426824e-02  -3.7280551287647255e-02  -3.3118604247107296e-02  -2.8943813031963798e-02  -2.4755959677937846e-02  -2.0552385900790279e-02  -1.6327243784957882e-02  -1.2071059935792281e-02  -7.7729793976868385e-03  -3.4263940848281898e-03  9.6371094131312088e-04  5.3779249500426783e-03  9.7892422254411311e-03  1.4173994736446309e-02  1.8518305633713816e-02  2.2817810408152256e-02  2.7074229790974985e-02  3.1291968451302048e-02  3.5475875796044810e-02  3.9630137531345276e-02  4.3757874163742182e-02  4.7861173031753176e-02  5.1941183302781975e-02  5.5998432331062636e-02  6.0032811101145910e-02  6.4044118779754064e-02  6.8031534939410415e-02  7.1995221000732468e-02  7.5933602190793884e-02  7.9853334983206917e-02  8.3748640479365630e-02  8.7704911030620863e-02  9.1560007615036021e-02  9.6087229796823395e-02  1.0146695445112684e-01  -9.9213357360687662e-02  -9.3827171484238553e-02  -8.9287666231911658e-02  -8.5424762679216115e-02  -8.1453461335891944e-02  -7.7539413769943458e-02  -7.3596454447828072e-02  -6.9631031078752390e-02  -6.5636515166026616e-02  -6.1615087456285640e-02  -5.7567254459753171e-02  -5.3494924891617147e-02  -4.9399779850611523e-02  -4.5284020255427333e-02  -4.1149938750882228e-02  -3.7000082957697203e-02  -3.2836946998152636e-02  -2.8662610214571400e-02  -2.4477895031035056e-02  -2.0280709968256112e-02  -1.6064392231411196e-02  -1.1815013982080956e-02  -7.5138816039874530e-03  -3.1462978738517233e-03  1.2816540278780661e-03  5.7360028864380823e-03  1.0171981195504816e-02  1.4557045588329683e-02  1.8879404095716371e-02  2.3141925806378749e-02  2.7353710786332600e-02  3.1524628186523504e-02  3.5662880773110535e-02  3.9774414221864181e-02  4.3863092908608577e-02  4.7931179378702414e-02  5.1979715732520484e-02  5.6009008807834923e-02  6.0018704043006736e-02  6.4008375107839688e-02  6.7977013589110846e-02  7.1924627679716482e-02  7.5849542994231717e-02  7.9758276428208402e-02  8.3645057357636846e-02  8.7595040854282810e-02  9.1446660920557740e-02  9.5972505204492742e-02  1.0135263713891052e-01  -9.8996012585160165e-02  -9.3608088767668116e-02  -8.9065860722177537e-02  -8.5202128958994566e-02  -8.1230111645542669e-02  -7.7315551349705247e-02  -7.3371953594358386e-02  -6.9405746536411447e-02  -6.5410170609992588e-02  -6.1387267074161075e-02  -5.7337368676641305e-02  -5.3262200809933526e-02  -4.9163267126473009e-02  -4.5042630679877092e-02  -4.0902540933449805e-02  -3.6745696915148590e-02  -3.2575076921834679e-02  -2.8393770427322506e-02  -2.4204174946897080e-02  -2.0006018825248311e-02  -1.5793415329854763e-02  -1.1547555443851399e-02  -7.2377717214263167e-03  -2.8310326278923191e-03  1.6647654044324299e-03  6.1844600835143943e-03  1.0651298915037296e-02  1.5024486586388561e-02  1.9304546605602851e-02  2.3510057815882241e-02  2.7661454434956417e-02  3.1774822746673752e-02  3.5861036354841398e-02  3.9926716608126536e-02  4.3975468772994838e-02  4.8008944022445842e-02  5.2027508339383376e-02  5.6030852237148668e-02  6.0018104800953855e-02  6.3988429799051422e-02  6.7940503368496025e-02  7.1874093626464006e-02  7.5787361305006351e-02  7.9686649629740175e-02  8.3566153467002427e-02  8.7510785422872758e-02  9.1359431430427560e-02  9.5884020016824292e-02  1.0126440488456928e-01  -9.8826679187451000e-02  -9.3437381182113366e-02  -8.8892880026293655e-02  -8.5028354898879527e-02  -8.1055533699480625e-02  -7.7140252547257621e-02  -7.3195724827612163e-02  -6.9228337441634730e-02  -6.5231192461583418e-02  -6.1206162832724433e-02  -5.7153365860971445e-02  -5.3074267837016326e-02  -4.8970069699208349e-02  -4.4842497680469183e-02  -4.0693460914247290e-02  -3.6525393444104562e-02  -3.2341250950526666e-02  -2.8144660029252477e-02  -2.3939536941430778e-02  -1.9728664530948587e-02  -1.5509735854451208e-02  -1.1261938263838268e-02  -6.9389629871017319e-03  -2.4638767168469349e-03  2.1481526758262725e-03  6.7649390638138554e-03  1.1256185072405589e-02  1.5583544822593552e-02  1.9784277439436948e-02  2.3904313537269767e-02  2.7977250522444951e-02  3.2023381673020941e-02  3.6053562565106605e-02  4.0072923201633782e-02  4.4083313362024451e-02  4.8084820080002991e-02  5.2076550290145858e-02  5.6057228299136667e-02  6.0025258390315799e-02  6.3979270022331225e-02  6.7917547731638342e-02  7.1839574174311097e-02  7.5743311858815471e-02  7.9634922388093027e-02  8.3508539319243055e-02  8.7448852398344351e-02  9.1295077942045180e-02  9.5818587429232355e-02  1.0119910723742377e-01  -9.8705600605536237e-02  -9.3315314196168800e-02  -8.8769075350773399e-02  -8.4903899363659927e-02  -8.0930362489537513e-02  -7.7014382883197105e-02  -7.3068933725197571e-02  -6.9100358546930363e-02  -6.5101633371352371e-02  -6.1074466460272238e-02  -5.7018758152589236e-02  -5.2935690062123376e-02  -4.8826094971472569e-02  -4.4691222432818450e-02  -4.0532373174942155e-02  -3.6351234355592982e-02  -3.2149929054954750e-02  -2.7931373921934337e-02  -2.3699467499888081e-02  -1.9459020850656938e-02  -1.5212916929705389e-02  -1.0948574088601946e-02  -6.6098742194752981e-03  -2.0194926545104570e-03  2.7747981042468188e-03  7.5173377235537896e-03  1.1998158055311285e-02  1.6211097805529217e-02  2.0279702904175034e-02  2.4284525114143678e-02  2.8266198582898715e-02  3.2242233610058527e-02  3.6218654033988031e-02  4.0196284723665383e-02  4.4173729469119002e-02  4.8148768124527917e-02  5.2118897701386800e-02  5.6081723843938412e-02  6.0034869171934298e-02  6.3976416158440561e-02  6.7904262233428714e-02  7.1817617607128931e-02  7.5714254456774197e-02  7.9600176670591452e-02  8.3469449083319436e-02  8.7406583169012633e-02  9.1251004575894301e-02  9.5773675228697494e-02  1.0115425122044804e-01  -9.8633017739373788e-02  -9.3242147261901012e-02  -8.8694774438019278e-02  -8.4829175157418973e-02  -8.0855154221540174e-02  -7.6938689209580302e-02  -7.2992583212744613e-02  -6.9023151552140283e-02  -6.5023283110434205e-02  -6.0994565700406650e-02  -5.6936738098308473e-02  -5.2850756701674613e-02  -4.8737145785162757e-02  -4.4596719733875599e-02  -4.0430157335976519e-02  -3.6238243386182943e-02  -3.2021789907345263e-02  -2.7781828783627432e-02  -2.3519712751792921e-02  -1.9237232849066793e-02  -1.4935612385932251e-02  -1.0614380264746962e-02  -6.2426415434376666e-03  -1.4949725499814109e-03  3.5053878243749515e-03  8.3972258269746653e-03  1.2815199333002084e-02  1.6809753426059719e-02  2.0701054062865234e-02  2.4581600063452062e-02  2.8478916328431584e-02  3.2396931736148757e-02  3.6332265246698650e-02  4.0279785108025941e-02  4.4234426885357656e-02  4.8191693632709302e-02  5.2147642226282070e-02  5.6098945513023996e-02  6.0042606388526633e-02  6.3976290205814718e-02  6.7897605715889861e-02  7.1805566854121247e-02  7.5697805951199917e-02  7.9580223992999827e-02  8.3446828746245386e-02  8.7382019296552788e-02  9.1225310691540246e-02  9.5747439049569186e-02  1.0112802555124581e-01  -9.8609102523265157e-02  -9.3218063867467935e-02  -8.8670205284110279e-02  -8.4804464289562023e-02  -8.0830284702869792e-02  -7.6913673045444053e-02  -7.2967346871320227e-02  -6.8997621013016083e-02  -6.4997358882954839e-02  -6.0968105950288891e-02  -5.6909546769387816e-02  -5.2822555879287136e-02  -4.8707545253155134e-02  -4.4565164701618441e-02  -4.0395849167205969e-02  -3.6200008570637182e-02  -3.1977861050880831e-02  -2.7729448626942824e-02  -2.3454428769322435e-02  -1.9151478721357557e-02  -1.4817097613997146e-02  -1.0448664779563676e-02  -6.0586740917203986e-03  -1.1101209433896381e-03  3.9247759060698634e-03  8.8875164763518363e-03  1.3415925485694664e-02  1.7147603934575130e-02  2.08971629557