<?xml version="1.0"?>
<VTKFile type="UnstructuredGrid"  version="0.1"  >
<UnstructuredGrid>
<Piece  NumberOfPoints="1617" NumberOfCells="3072">
<Points>
<DataArray  type="Float64"  NumberOfComponents="3"  format="ascii">0 0 0  0.03125 0 0  0.0625 0 0  0.09375 0 0  0.125 0 0  0.15625 0 0  0.1875 0 0  0.21875 0 0  0.25 0 0  0.28125 0 0  0.3125 0 0  0.34375 0 0  0.375 0 0  0.40625 0 0  0.4375 0 0  0.46875 0 0  0.5 0 0  0.53125 0 0  0.5625 0 0  0.59375 0 0  0.625 0 0  0.65625 0 0  0.6875 0 0  0.71875 0 0  0.75 0 0  0.78125 0 0  0.8125 0 0  0.84375 0 0  0.875 0 0  0.90625 0 0  0.9375 0 0  0.96875 0 0  1 0 0  1.03125 0 0  1.0625 0 0  1.09375 0 0  1.125 0 0  1.15625 0 0  1.1875 0 0  1.21875 0 0  1.25 0 0  1.28125 0 0  1.3125 0 0  1.34375 0 0  1.375 0 0  1.40625 0 0  1.4375 0 0  1.46875 0 0  1.5 0 0  0 0.03125 0  0.03125 0.03125 0  0.0625 0.03125 0  0.09375 0.03125 0  0.125 0.03125 0  0.15625 0.03125 0  0.1875 0.03125 0  0.21875 0.03125 0  0.25 0.03125 0  0.28125 0.03125 0  0.3125 0.03125 0  0.34375 0.03125 0  0.375 0.03125 0  0.40625 0.03125 0  0.4375 0.03125 0  0.46875 0.03125 0  0.5 0.03125 0  0.53125 0.03125 0  0.5625 0.03125 0  0.59375 0.03125 0  0.625 0.03125 0  0.65625 0.03125 0  0.6875 0.03125 0  0.71875 0.03125 0  0.75 0.03125 0  0.78125 0.03125 0  0.8125 0.03125 0  0.84375 0.03125 0  0.875 0.03125 0  0.90625 0.03125 0  0.9375 0.03125 0  0.96875 0.03125 0  1 0.03125 0  1.03125 0.03125 0  1.0625 0.03125 0  1.09375 0.03125 0  1.125 0.03125 0  1.15625 0.03125 0  1.1875 0.03125 0  1.21875 0.03125 0  1.25 0.03125 0  1.28125 0.03125 0  1.3125 0.03125 0  1.34375 0.03125 0  1.375 0.03125 0  1.40625 0.03125 0  1.4375 0.03125 0  1.46875 0.03125 0  1.5 0.03125 0  0 0.0625 0  0.03125 0.0625 0  0.0625 0.0625 0  0.09375 0.0625 0  0.125 0.0625 0  0.15625 0.0625 0  0.1875 0.0625 0  0.21875 0.0625 0  0.25 0.0625 0  0.28125 0.0625 0  0.3125 0.0625 0  0.34375 0.0625 0  0.375 0.0625 0  0.40625 0.0625 0  0.4375 0.0625 0  0.46875 0.0625 0  0.5 0.0625 0  0.53125 0.0625 0  0.5625 0.0625 0  0.59375 0.0625 0  0.625 0.0625 0  0.65625 0.0625 0  0.6875 0.0625 0  0.71875 0.0625 0  0.75 0.0625 0  0.78125 0.0625 0  0.8125 0.0625 0  0.84375 0.0625 0  0.875 0.0625 0  0.90625 0.0625 0  0.9375 0.0625 0  0.96875 0.0625 0  1 0.0625 0  1.03125 0.0625 0  1.0625 0.0625 0  1.09375 0.0625 0  1.125 0.0625 0  1.15625 0.0625 0  1.1875 0.0625 0  1.21875 0.0625 0  1.25 0.0625 0  1.28125 0.0625 0  1.3125 0.0625 0  1.34375 0.0625 0  1.375 0.0625 0  1.40625 0.0625 0  1.4375 0.0625 0  1.46875 0.0625 0  1.5 0.0625 0  0 0.09375 0  0.03125 0.09375 0  0.0625 0.09375 0  0.09375 0.09375 0  0.125 0.09375 0  0.15625 0.09375 0  0.1875 0.09375 0  0.21875 0.09375 0  0.25 0.09375 0  0.28125 0.09375 0  0.3125 0.09375 0  0.34375 0.09375 0  0.375 0.09375 0  0.40625 0.09375 0  0.4375 0.09375 0  0.46875 0.09375 0  0.5 0.09375 0  0.53125 0.09375 0  0.5625 0.09375 0  0.59375 0.09375 0  0.625 0.09375 0  0.65625 0.09375 0  0.6875 0.09375 0  0.71875 0.09375 0  0.75 0.09375 0  0.78125 0.09375 0  0.8125 0.09375 0  0.84375 0.09375 0  0.875 0.09375 0  0.90625 0.09375 0  0.9375 0.09375 0  0.96875 0.09375 0  1 0.09375 0  1.03125 0.09375 0  1.0625 0.09375 0  1.09375 0.09375 0  1.125 0.09375 0  1.15625 0.09375 0  1.1875 0.09375 0  1.21875 0.09375 0  1.25 0.09375 0  1.28125 0.09375 0  1.3125 0.09375 0  1.34375 0.09375 0  1.375 0.09375 0  1.40625 0.09375 0  1.4375 0.09375 0  1.46875 0.09375 0  1.5 0.09375 0  0 0.125 0  0.03125 0.125 0  0.0625 0.125 0  0.09375 0.125 0  0.125 0.125 0  0.15625 0.125 0  0.1875 0.125 0  0.21875 0.125 0  0.25 0.125 0  0.28125 0.125 0  0.3125 0.125 0  0.34375 0.125 0  0.375 0.125 0  0.40625 0.125 0  0.4375 0.125 0  0.46875 0.125 0  0.5 0.125 0  0.53125 0.125 0  0.5625 0.125 0  0.59375 0.125 0  0.625 0.125 0  0.65625 0.125 0  0.6875 0.125 0  0.71875 0.125 0  0.75 0.125 0  0.78125 0.125 0  0.8125 0.125 0  0.84375 0.125 0  0.875 0.125 0  0.90625 0.125 0  0.9375 0.125 0  0.96875 0.125 0  1 0.125 0  1.03125 0.125 0  1.0625 0.125 0  1.09375 0.125 0  1.125 0.125 0  1.15625 0.125 0  1.1875 0.125 0  1.21875 0.125 0  1.25 0.125 0  1.28125 0.125 0  1.3125 0.125 0  1.34375 0.125 0  1.375 0.125 0  1.40625 0.125 0  1.4375 0.125 0  1.46875 0.125 0  1.5 0.125 0  0 0.15625 0  0.03125 0.15625 0  0.0625 0.15625 0  0.09375 0.15625 0  0.125 0.15625 0  0.15625 0.15625 0  0.1875 0.15625 0  0.21875 0.15625 0  0.25 0.15625 0  0.28125 0.15625 0  0.3125 0.15625 0  0.34375 0.15625 0  0.375 0.15625 0  0.40625 0.15625 0  0.4375 0.15625 0  0.46875 0.15625 0  0.5 0.15625 0  0.53125 0.15625 0  0.5625 0.15625 0  0.59375 0.15625 0  0.625 0.15625 0  0.65625 0.15625 0  0.6875 0.15625 0  0.71875 0.15625 0  0.75 0.15625 0  0.78125 0.15625 0  0.8125 0.15625 0  0.84375 0.15625 0  0.875 0.15625 0  0.90625 0.15625 0  0.9375 0.15625 0  0.96875 0.15625 0  1 0.15625 0  1.03125 0.15625 0  1.0625 0.15625 0  1.09375 0.15625 0  1.125 0.15625 0  1.15625 0.15625 0  1.1875 0.15625 0  1.21875 0.15625 0  1.25 0.15625 0  1.28125 0.15625 0  1.3125 0.15625 0  1.34375 0.15625 0  1.375 0.15625 0  1.40625 0.15625 0  1.4375 0.15625 0  1.46875 0.15625 0  1.5 0.15625 0  0 0.1875 0  0.03125 0.1875 0  0.0625 0.1875 0  0.09375 0.1875 0  0.125 0.1875 0  0.15625 0.1875 0  0.1875 0.1875 0  0.21875 0.1875 0  0.25 0.1875 0  0.28125 0.1875 0  0.3125 0.1875 0  0.34375 0.1875 0  0.375 0.1875 0  0.40625 0.1875 0  0.4375 0.1875 0  0.46875 0.1875 0  0.5 0.1875 0  0.53125 0.1875 0  0.5625 0.1875 0  0.59375 0.1875 0  0.625 0.1875 0  0.65625 0.1875 0  0.6875 0.1875 0  0.71875 0.1875 0  0.75 0.1875 0  0.78125 0.1875 0  0.8125 0.1875 0  0.84375 0.1875 0  0.875 0.1875 0  0.90625 0.1875 0  0.9375 0.1875 0  0.96875 0.1875 0  1 0.1875 0  1.03125 0.1875 0  1.0625 0.1875 0  1.09375 0.1875 0  1.125 0.1875 0  1.15625 0.1875 0  1.1875 0.1875 0  1.21875 0.1875 0  1.25 0.1875 0  1.28125 0.1875 0  1.3125 0.1875 0  1.34375 0.1875 0  1.375 0.1875 0  1.40625 0.1875 0  1.4375 0.1875 0  1.46875 0.1875 0  1.5 0.1875 0  0 0.21875 0  0.03125 0.21875 0  0.0625 0.21875 0  0.09375 0.21875 0  0.125 0.21875 0  0.15625 0.21875 0  0.1875 0.21875 0  0.21875 0.21875 0  0.25 0.21875 0  0.28125 0.21875 0  0.3125 0.21875 0  0.34375 0.21875 0  0.375 0.21875 0  0.40625 0.21875 0  0.4375 0.21875 0  0.46875 0.21875 0  0.5 0.21875 0  0.53125 0.21875 0  0.5625 0.21875 0  0.59375 0.21875 0  0.625 0.21875 0  0.65625 0.21875 0  0.6875 0.21875 0  0.71875 0.21875 0  0.75 0.21875 0  0.78125 0.21875 0  0.8125 0.21875 0  0.84375 0.21875 0  0.875 0.21875 0  0.90625 0.21875 0  0.9375 0.21875 0  0.96875 0.21875 0  1 0.21875 0  1.03125 0.21875 0  1.0625 0.21875 0  1.09375 0.21875 0  1.125 0.21875 0  1.15625 0.21875 0  1.1875 0.21875 0  1.21875 0.21875 0  1.25 0.21875 0  1.28125 0.21875 0  1.3125 0.21875 0  1.34375 0.21875 0  1.375 0.21875 0  1.40625 0.21875 0  1.4375 0.21875 0  1.46875 0.21875 0  1.5 0.21875 0  0 0.25 0  0.03125 0.25 0  0.0625 0.25 0  0.09375 0.25 0  0.125 0.25 0  0.15625 0.25 0  0.1875 0.25 0  0.21875 0.25 0  0.25 0.25 0  0.28125 0.25 0  0.3125 0.25 0  0.34375 0.25 0  0.375 0.25 0  0.40625 0.25 0  0.4375 0.25 0  0.46875 0.25 0  0.5 0.25 0  0.53125 0.25 0  0.5625 0.25 0  0.59375 0.25 0  0.625 0.25 0  0.65625 0.25 0  0.6875 0.25 0  0.71875 0.25 0  0.75 0.25 0  0.78125 0.25 0  0.8125 0.25 0  0.84375 0.25 0  0.875 0.25 0  0.90625 0.25 0  0.9375 0.25 0  0.96875 0.25 0  1 0.25 0  1.03125 0.25 0  1.0625 0.25 0  1.09375 0.25 0  1.125 0.25 0  1.15625 0.25 0  1.1875 0.25 0  1.21875 0.25 0  1.25 0.25 0  1.28125 0.25 0  1.3125 0.25 0  1.34375 0.25 0  1.375 0.25 0  1.40625 0.25 0  1.4375 0.25 0  1.46875 0.25 0  1.5 0.25 0  0 0.28125 0  0.03125 0.28125 0  0.0625 0.28125 0  0.09375 0.28125 0  0.125 0.28125 0  0.15625 0.28125 0  0.1875 0.28125 0  0.21875 0.28125 0  0.25 0.28125 0  0.28125 0.28125 0  0.3125 0.28125 0  0.34375 0.28125 0  0.375 0.28125 0  0.40625 0.28125 0  0.4375 0.28125 0  0.46875 0.28125 0  0.5 0.28125 0  0.53125 0.28125 0  0.5625 0.28125 0  0.59375 0.28125 0  0.625 0.28125 0  0.65625 0.28125 0  0.6875 0.28125 0  0.71875 0.28125 0  0.75 0.28125 0  0.78125 0.28125 0  0.8125 0.28125 0  0.84375 0.28125 0  0.875 0.28125 0  0.90625 0.28125 0  0.9375 0.28125 0  0.96875 0.28125 0  1 0.28125 0  1.03125 0.28125 0  1.0625 0.28125 0  1.09375 0.28125 0  1.125 0.28125 0  1.15625 0.28125 0  1.1875 0.28125 0  1.21875 0.28125 0  1.25 0.28125 0  1.28125 0.28125 0  1.3125 0.28125 0  1.34375 0.28125 0  1.375 0.28125 0  1.40625 0.28125 0  1.4375 0.28125 0  1.46875 0.28125 0  1.5 0.28125 0  0 0.3125 0  0.03125 0.3125 0  0.0625 0.3125 0  0.09375 0.3125 0  0.125 0.3125 0  0.15625 0.3125 0  0.1875 0.3125 0  0.21875 0.3125 0  0.25 0.3125 0  0.28125 0.3125 0  0.3125 0.3125 0  0.34375 0.3125 0  0.375 0.3125 0  0.40625 0.3125 0  0.4375 0.3125 0  0.46875 0.3125 0  0.5 0.3125 0  0.53125 0.3125 0  0.5625 0.3125 0  0.59375 0.3125 0  0.625 0.3125 0  0.65625 0.3125 0  0.6875 0.3125 0  0.71875 0.3125 0  0.75 0.3125 0  0.78125 0.3125 0  0.8125 0.3125 0  0.84375 0.3125 0  0.875 0.3125 0  0.90625 0.3125 0  0.9375 0.3125 0  0.96875 0.3125 0  1 0.3125 0  1.03125 0.3125 0  1.0625 0.3125 0  1.09375 0.3125 0  1.125 0.3125 0  1.15625 0.3125 0  1.1875 0.3125 0  1.21875 0.3125 0  1.25 0.3125 0  1.28125 0.3125 0  1.3125 0.3125 0  1.34375 0.3125 0  1.375 0.3125 0  1.40625 0.3125 0  1.4375 0.3125 0  1.46875 0.3125 0  1.5 0.3125 0  0 0.34375 0  0.03125 0.34375 0  0.0625 0.34375 0  0.09375 0.34375 0  0.125 0.34375 0  0.15625 0.34375 0  0.1875 0.34375 0  0.21875 0.34375 0  0.25 0.34375 0  0.28125 0.34375 0  0.3125 0.34375 0  0.34375 0.34375 0  0.375 0.34375 0  0.40625 0.34375 0  0.4375 0.34375 0  0.46875 0.34375 0  0.5 0.34375 0  0.53125 0.34375 0  0.5625 0.34375 0  0.59375 0.34375 0  0.625 0.34375 0  0.65625 0.34375 0  0.6875 0.34375 0  0.71875 0.34375 0  0.75 0.34375 0  0.78125 0.34375 0  0.8125 0.34375 0  0.84375 0.34375 0  0.875 0.34375 0  0.90625 0.34375 0  0.9375 0.34375 0  0.96875 0.34375 0  1 0.34375 0  1.03125 0.34375 0  1.0625 0.34375 0  1.09375 0.34375 0  1.125 0.34375 0  1.15625 0.34375 0  1.1875 0.34375 0  1.21875 0.34375 0  1.25 0.34375 0  1.28125 0.34375 0  1.3125 0.34375 0  1.34375 0.34375 0  1.375 0.34375 0  1
[...]
<PointData  Scalars="f_49"> 
<DataArray  type="Float64"  Name="f_49"  format="ascii">-1.5653833056669526e-02  -1.3722488966306210e-02  -1.3633167345576834e-02  -1.3486885826070532e-02  -1.3254864187560337e-02  -1.2968531074181836e-02  -1.2637594553117984e-02  -1.2262774628500268e-02  -1.1842924473316817e-02  -1.1377436297120937e-02  -1.0866930616679531e-02  -1.0313133603945767e-02  -9.7184697121944982e-03  -9.0856952292610784e-03  -8.4176610013650364e-03  -7.7171913877417085e-03  -6.9870388041186364e-03  -6.2298806899366297e-03  -5.4483389348497294e-03  -4.6450112769054284e-03  -3.8225089294826732e-03  -2.9834963938713457e-03  -2.1307296951881939e-03  -1.2670892222316776e-03  -3.9560359808816370e-04  4.8053812442655551e-04  1.3579871392011950e-03  2.2332477334984628e-03  3.1026997610804521e-03  3.9626268554710676e-03  4.8092459757432494e-03  5.6387341863439241e-03  6.4472496246449056e-03  7.2309452637250339e-03  7.9859757756712019e-03  8.7085031046689292e-03  9.3947068627305511e-03  1.0040838920044899e-02  1.0643335952248785e-02  1.1199148233021391e-02  1.1706272299572698e-02  1.2164187163185484e-02  1.2576677458235945e-02  1.2941077732451968e-02  1.3297642321232192e-02  1.3527836230255637e-02  1.3992393480813050e-02  1.3295652735425349e-02  1.5864562036532765e-02  -1.5107094772777782e-02  -1.2376282173905628e-02  -1.2664691074586799e-02  -1.2510138575636341e-02  -1.2325352064956966e-02  -1.2083524546526342e-02  -1.1799288273798768e-02  -1.1470487538595787e-02  -1.1095504081998204e-02  -1.0673779865635093e-02  -1.0206188590333577e-02  -9.6947017840496603e-03  -9.1419347899103030e-03  -8.5507788145344835e-03  -7.9241813677064319e-03  -7.2650435437611937e-03  -6.5761877106366110e-03  -5.8603619180145313e-03  -5.1202624713149363e-03  -4.3585656852043724e-03  -3.5779640981008498e-03  -2.7812036939372292e-03  -1.9711187027841503e-03  -1.1506604057228700e-03  -3.2291664945495045e-04  5.0888023906086786e-04  1.3413577944986143e-03  2.1710186890763817e-03  2.9942638488590660e-03  3.8074192386669255e-03  4.6067620016225549e-03  5.3885423360555129e-03  6.1489987490576633e-03  6.8843659429511051e-03  7.5908762378496279e-03  8.2647593224110839e-03  8.9022483911539319e-03  9.4996216570692859e-03  1.0053311977501259e-02  1.0560180801975416e-02  1.1018032547591400e-02  1.1426081844785411e-02  1.1786789757302532e-02  1.2100655598568431e-02  1.2388614167620018e-02  1.2597283304114710e-02  1.2848501907034257e-02  1.2559261333072761e-02  1.5039697957917339e-02  -1.3691066532484496e-02  -1.1085058857704267e-02  -1.1491297930284250e-02  -1.1286227528477806e-02  -1.1153290288734255e-02  -1.0956528961081326e-02  -1.0725961082573298e-02  -1.0452189688225909e-02  -1.0132107898952646e-02  -9.7647719904342383e-03  -9.3511379755980353e-03  -8.8933590949754251e-03  -8.3942222298448478e-03  -7.8567425299933720e-03  -7.2839491671433014e-03  -6.6787976336738931e-03  -6.0441505773353634e-03  -5.3827902297941804e-03  -4.6974448943912879e-03  -3.9908223346301654e-03  -3.2656468128301531e-03  -2.5246970951712097e-03  -1.7708420629196943e-03  -1.0070698486226305e-03  -2.3650638707701081e-04  5.3757962677000227e-04  1.3117861440447159e-03  2.0825994784822942e-03  2.8464238097255334e-03  3.5996126889214623e-03  4.3384970499034791e-03  5.0594057128944443e-03  5.7586764075911370e-03  6.4326573387096095e-03  7.0777008821405751e-03  7.6901544786888215e-03  8.2663553716586999e-03  8.8026597410425459e-03  9.2955269520830029e-03  9.7417900127304211e-03  1.0139094016970395e-02  1.0486519930211007e-02  1.0786163421486472e-02  1.1038725284178290e-02  1.1266906495182787e-02  1.1409619988010626e-02  1.1632130922410697e-02  1.1277671755541089e-02  1.3782684465123715e-02  -1.2571410206088807e-02  -1.0042657155733525e-02  -1.0436554122377137e-02  -1.0237484513742196e-02  -1.0145175885141649e-02  -9.9785742589958253e-03  -9.7889114696310640e-03  -9.5584364033327388e-03  -9.2832486205556963e-03  -8.9616961173153292e-03  -8.5943631864093973e-03  -8.1832546984250167e-03  -7.7311120080637398e-03  -7.2409414482853124e-03  -6.7157720840884368e-03  -6.1585585375239860e-03  -5.5721593967692790e-03  -4.9593489339563790e-03  -4.3228434261683669e-03  -3.6653353338995435e-03  -2.9895328112625645e-03  -2.2982021339219244e-03  -1.5942090785229525e-03  -8.8055357907675970e-04  -1.6039127920390678e-04  5.6296313891496166e-04  1.2860524860478905e-03  2.0053103135150964e-03  2.7171035467780818e-03  3.4177753450177280e-03  4.1036801098627371e-03  4.7712056661521566e-03  5.4167812415976879e-03  6.0368728357757381e-03  6.6279692938328045e-03  7.1865656731084863e-03  7.7091517860112257e-03  8.1922374657538832e-03  8.6324394482700326e-03  9.0267575761906974e-03  9.3730517735535670e-03  9.6706671761503504e-03  9.9222139510335029e-03  1.0128931322387864e-02  1.0315073608493770e-02  1.0421227149258326e-02  1.0615628038847403e-02  1.0238978675031851e-02  1.2758997889084875e-02  -1.1574747001716909e-02  -9.0613239019416009e-03  -9.4687395876700865e-03  -9.2974351475545031e-03  -9.2309524180960653e-03  -9.0902345282229124e-03  -8.9343071492003403e-03  -8.7394739737336295e-03  -8.5023394958097798e-03  -8.2205061452102855e-03  -7.8940633022065113e-03  -7.5247441098355954e-03  -7.1151185307426158e-03  -6.6680876694285391e-03  -6.1866096961306558e-03  -5.6735854936012780e-03  -5.1318257998906585e-03  -4.5640555460953929e-03  -3.9729359313194993e-03  -3.3610979703089399e-03  -2.7311857024329114e-03  -2.0859068645664473e-03  -1.4280858922527595e-03  -7.6071060148551900e-04  -8.6961663816426425e-05  5.8978470533766164e-04  1.2659845474810446e-03  1.9379792912709067e-03  2.6020613070281270e-03  3.2545362065873806e-03  3.8917692976388227e-03  4.5102101295346336e-03  5.1063956046656627e-03  5.6769364902552787e-03  6.2184939544320719e-03  6.7277552177812967e-03  7.2014182522029393e-03  7.6362182342556402e-03  8.0290223765084670e-03  8.3771219583417111e-03  8.6787266070829597e-03  8.9336306070458490e-03  9.1449522624451589e-03  9.3146912959533642e-03  9.4676445848219815e-03  9.5457345307532176e-03  9.7192607128546906e-03  9.3215549611260357e-03  1.1832085745590420e-02  -1.0687647670756844e-02  -8.1836841884114098e-03  -8.6099137644549510e-03  -8.4574021499248721e-03  -8.4099583748756916e-03  -8.2929088476642945e-03  -8.1646139133188713e-03  -7.9994636692806327e-03  -7.7946604632133029e-03  -7.5470269633231210e-03  -7.2562502180725319e-03  -6.9237893261529602e-03  -6.5519983473588724e-03  -6.1436305972658485e-03  -5.7015356169833487e-03  -5.2285289734856823e-03  -4.7273444142616272e-03  -4.2006266447148282e-03  -3.6509457617457507e-03  -3.0808285358591295e-03  -2.4928064783195968e-03  -1.8894796229867135e-03  -1.2735896102101412e-03  -6.4808879445290549e-04  -1.6186119563127605e-05  6.1864890263587193e-04  1.2527324737230301e-03  1.8822539586772745e-03  2.5033802100972637e-03  3.1123484690549503e-03  3.7055278853919947e-03  4.2794435638667744e-03  4.8307686098881305e-03  5.3562953897145216e-03  5.8528978562730353e-03  6.3174972670484424e-03  6.7470427445913625e-03  7.1385398100299027e-03  7.4891526315300589e-03  7.7965081456895470e-03  8.0591979946351942e-03  8.2774588175624428e-03  8.4548758671760711e-03  8.5939881791903816e-03  8.7200178188066198e-03  8.7754361858223238e-03  8.9319601036644148e-03  8.5141194828739063e-03  1.1017553939323934e-02  -9.9004708405961914e-03  -7.4031809286681351e-03  -7.8450401137827343e-03  -7.7066950529237803e-03  -7.6761273124672548e-03  -7.5793745003708045e-03  -7.4738241630598144e-03  -7.3338318497653430e-03  -7.1566025000014298e-03  -6.9383650962583105e-03  -6.6785506557900474e-03  -6.3783640099285329e-03  -6.0399470534216390e-03  -5.6659016652282502e-03  -5.2589601503791310e-03  -4.8218432050441103e-03  -4.3571952337897379e-03  -3.8675623052585469e-03  -3.3553952788927428e-03  -2.8230757919932136e-03  -2.2729695436727727e-03  -1.7075091588756571e-03  -1.1293000597439296e-03  -5.4122999675427174e-04  5.3452547199378219e-05  6.5112851495807190e-04  1.2478863195750781e-03  1.8396706339296341e-03  2.4224530618897899e-03  2.9923712708495036e-03  3.5458057460960751e-03  4.0793928639409434e-03  4.5899921250272041e-03  5.0746305159230370e-03  5.5304432428799968e-03  5.9546261151712200e-03  6.3444111570561453e-03  6.6970969793378691e-03  7.0101574198579769e-03  7.2815535265027612e-03  7.5102376576881473e-03  7.6968376197030066e-03  7.8453195026875425e-03  7.9586384604912741e-03  8.0622693530103297e-03  8.0990227714083738e-03  8.2416095134778562e-03  7.8071810938326169e-03  1.0304321604541226e-02  -9.2058634231435305e-03  -6.7134887851375480e-03  -7.1676861752813731e-03  -7.0407062491316735e-03  -7.0243875161404871e-03  -6.9444464795387472e-03  -6.8579585511806661e-03  -6.7393478012599322e-03  -6.5855475810131757e-03  -6.3924601673829330e-03  -6.1593263955012348e-03  -5.8871217091024950e-03  -5.5778089480192639e-03  -5.2338571341036047e-03  -4.8578939536295168e-03  -4.4525549680488634e-03  -4.0204003212450457e-03  -3.5638742514838388e-03  -3.0852913121143712e-03  -2.5868500522484108e-03  -2.0706893121736495e-03  -1.5389955324513962e-03  -9.9415997376623723e-04  -4.3896103920779042e-04  1.2329239994741817e-04  6.8873348977741109e-04  1.2530731401283154e-03  1.8118644014804410e-03  2.3607895628215978e-03  2.8958651160746452e-03  3.4135223040287787e-03  3.9105827249359595e-03  4.3841748961238021e-03  4.8316342317699336e-03  5.2504138150676356e-03  5.6380215734289987e-03  5.9919922708996905e-03  6.3099216513885815e-03  6.5895821848123435e-03  6.8292420785311652e-03  7.0281692576419632e-03  7.1873178891141429e-03  7.3109535767658532e-03  7.4023473047632425e-03  7.4871403926797140e-03  7.5083543214375815e-03  7.6394589311140270e-03  7.1915714311811315e-03  9.6839897455297391e-03  -8.5975440410401005e-03  -6.1087918600059290e-03  -6.5725070391315539e-03  -6.4546908063772860e-03  -6.4501650451024546e-03  -6.3841701824870201e-03  -6.3136806160418116e-03  -6.2130674458770680e-03  -6.0790268840502848e-03  -5.9072744156726193e-03  -5.6968715975515422e-03  -5.4486057107891251e-03  -5.1643002057761723e-03  -4.8463173688665703e-03  -4.4972056252438582e-03  -4.1195401505476096e-03  -3.7158193113100749e-03  -3.2884016329708648e-03  -2.8394653394219972e-03  -2.3709954188910051e-03  -1.8848350035955697e-03  -1.3828145081258587e-03  -8.6698614020984052e-04  -3.3993778950800873e-04  1.9493091807388561e-04  7.3333028002532945e-04  1.2703291911339023e-03  1.8008529620491839e-03  2.3201794090397950e-03  2.8242230077027419e-03  3.3095740879861796e-03  3.7733790162576596e-03  4.2131637966823839e-03  4.6266691012633917e-03  5.0117267336240862e-03  5.3661857444107994e-03  5.6878875717760354e-03  5.9747099743569891e-03  6.2246938325176554e-03  6.4363709088550488e-03  6.6092688873778064e-03  6.7446005003090736e-03  6.8468579844800839e-03  6.9195479555263393e-03  6.9884191871488963e-03  6.9966357214714687e-03  7.1182883243029304e-03  6.6595565867666601e-03  9.1483960942305605e-03  -8.0703623237247737e-03  -5.5842942575227948e-03  -6.0553121117822911e-03  -5.9448853540806784e-03  -5.9500224874295699e-03  -5.8955154800692678e-03  -5.8382931180887389e-03  -5.7526354126242072e-03  -5.6350649727193846e-03  -5.4811502379757742e-03  -5.2897899310352901e-03  -5.0616258458287102e-03  -4.7983716797243194e-03  -4.5023087883737977e-03  -4.1759365260849975e-03  -3.8218040911200072e-03  -3.4423873642568628e-03  -3.0400003697439830e-03  -2.6167120520110923e-03  -2.1742843677886553e-03  -1.7141972370823249e-03  -1.2377675209000267e-03  -7.4649719358798033e-04  -2.4261816925079304e-04  2.7034752205471493e-04  7.8735744109494305e-04  1.3023461194049473e-03  1.8092335710567565e-03  2.3027941131418782e-03  2.7789787107672468e-03  3.2347814201765237e-03  3.6679139171968138e-03  4.0764812867929946e-03  4.4587405063543284e-03  4.8129528523148018e-03  5.1373155916905854e-03  5.4299554244101201e-03  5.6889931312756950e-03  5.9126880493956015e-03  6.0997779665250638e-03  6.2499872647977855e-03  6.3647197760939075e-03  6.4486280533961960e-03  6.5053870231894014e-03  6.5608069595991516e-03  6.5581487662821685e-03  6.6720128336434162e-03  6.2045114258388193e-03  8.6906148863405506e-03  -7.6202172840832234e-03  -5.1361500073860587e-03  -5.6127489508316910e-03  -5.5082386444534294e-03  -5.5211934621831613e-03  -5.4760215740597938e-03  -5.4296257776470002e-03  -5.3561915653858655e-03  -5.2521021112186513e-03  -5.1127936215197949e-03  -4.9370244541178145e-03  -4.7253163985988425e-03  -4.4792890789510141e-03  -4.2011613214205127e-03  -3.8934079009558284e-03  -3.5585867445215827e-03  -3.1992027439635357e-03  -2.8175951475521402e-03  -2.4157917163224814e-03  -1.9953756558939583e-03  -1.5574257703888153e-03  -1.1025227131625293e-03  -6.3126068290989381e-04  -1.4514234580319583e-04  3.5218830530897875e-04  8.5424970242705604e-04  1.3528733825804531e-03  1.8404078662444326e-03  2.3111898408071764e-03  2.7616388219507096e-03  3.1896338908524195e-03  3.5938172842873276e-03  3.9730880897162341e-03  4.3263112452439859e-03  4.6521870358572246e-03  4.9492234413341264e-03  5.2157718733471300e-03  5.4501266263786699e-03  5.6506940779413794e-03  5.8163475097020760e-03  5.9469395746376309e-03  6.0439989033133721e-03  6.1122782974936101e-03  6.1555632048782803e-03  6.1996881066285828e-03  6.1879762314363384e-03  6.2954413079837146e-03  5.8208256394976891e-03  8.3047942485581939e-03  -7.2439093907613449e-03  -4.7613318309937327e-03  -5.2421578573702754e-03  -5.1423173942021774e-03  -5.1614832641996445e-03  -5.1237474280052195e-03  -5.0859956773955037e-03  -5.0223223529960361e-03  -4.9289900786312979e-03  -4.8013131701132583e-03  -4.6379233954772416e-03  -4.4392294895069951e-03  -4.2067580332569897e-03  -3.9426664341076709e-03  -3.6494094343953753e-03  -3.3295717026903767e-03  -2.9857343739991262e-03  -2.6203495749860268e-03  -2.2355258513436457e-03  -1.8328241982320643e-03  -1.4129728060581399e-03  -9.7555168431060141e-04  -5.1967278054605986e-04  -4.5166996624574264e-05  4.4429612103196093e-04  9.3918140419315917e-04  1.4272680320442654e-03  1.8986828286269178e-03  2.3480073200728177e-03  2.7731725420904610e-03  3.1737466041797820e-03  3.5497448188856096e-03  3.9010243420293670e-03  4.2270568323349560e-03  4.5269002463931580e-03  4.7992631319734302e-03  5.0426091503502938e-03  5.2553026133261779e-03  5.4358054629813479e-03  5.5830462722661284e-03  5.6969355180298362e-03  5.7790638649877204e-03  5.8342314655001719e-03  5.8662854694532980e-03  5.9010554180061328e-03  5.8818992869513935e-03  5.9841588796551810e-03  5.5038025057947250e-03  7.9860878567019882e-03  -6.9389830674223855e-03  -4.4575015900572713e-03  -4.9414677753635517e-03  -4.8452234742111583e-03  -4.8691909899424473e-03  -4.8372086059646898e-03  -4.8061494518999159e-03  -4.7500220156042033e-03  -4.6649818296983477e-03  -4.5462284748356485e-03  -4.3922714685410641e-03  -4.2034011505967797e-03  -3.9810365223004488e-03  -3.7272497733808340e-03  -3.4444454576068781e-03  -3.1352103900321561e-03  -2.8022049942426144e-03  -2.4480526153515024e-03  -2.0751024420719187e-03  -1.6852174255073838e-03  -1.2790277942354472e-03  -8.5503160642893758e-04  -4.0998916120308287e-04  6.0499245271389094e-05  5.5280080647866889e-04  1.0502675224992792e-03  1.5329440638898744e-03  1.9887514992372743e-03  2.4149003086162322e-03  2.8128532795996908e-03  3.1848825313604964e-03  3.5326671911979396e-03  3.8569494584742483e-03  4.1576018747243784e-03  4.4338141862392986e-03  4.6842943754155930e-03  4.9074537573106274e-03  5.1015966123751600e-03  5.2651383578721346e-03  5.3969816936795542e-03  5.4970292890796600e-03  5.5668792300001407e-03  5.6113359972509557e-03  5.6342696356458371e-03  5.6614845669517889e-03  5.6363523840074533e-03  5.7344671251893485e-03  5.2495667634068202e-03  7.7305339812395431e-03  -6.7035943413267258e-03  -4.2228977087437032e-03  -4.7091131604056827e-03  -4.6155252926235821e-03  -4.6430480687193292e-03  -4.6153228370713912e-03  -4.5892129294437386e-03  -4.5386492594312695e-03  -4.4596936229112935e-03  -4.3474388382618474e-03  -4.2002750956403349e-03  -4.0183660626904689e-03  -3.8029998847043957e-03  -3.5561196420332295e-03  -3.2800115415233489e-03  -2.9771742470115067e-03  -2.6502468061521040e-03  -2.3019524707346725e-03  -1.9349636331102594e-03  -1.5518493033245711e-03  -1.1537340603759985e-03  -7.3883368573276857e-04  -3.0036422869726752e-04  1.7685723896377056e-04  6.8778795248883794e-04  1.1994060858443220e-03  1.6783672817603323e-03  2.1132487153383080e-03  2.5098682959288653e-03  2.8761101912615134e-03  3.2174995686420969e-03  3.5370114721942941e-03  3.8357054804590415e-03  4.1133501948512645e-03  4.3688849642358491e-03  4.6007459845756856e-03  4.8071044205746979e-03  4.9860745647907307e-03  5.1359337274979825e-03  5.2554919694386970e-03  5.3445937666929356e-03  5.4048047192304634e-03  5.4409042489678566e-03  5.4567582932624195e-03  5.4781360280777925e-03  5.4484083145555284e-03  5.5433539155201692e-03  5.0550023364339209e-03  7.5349681870024591e-03  -6.5364088605984359e-03  -4.0562443825399282e-03  -4.5439624327782615e-03  -4.4521938079866395e-03  -4.4821569224308862e-03  -4.4573486276504619e-03  -4.4346261810842159e-03  -4.3878563602306585e-03  -4.3130253159932895e-03  -4.2051347172141779e-03  -4.0624678461229167e-03  -3.8850651447599805e-03  -3.6740722583890099e-03  -3.4312666053014614e-03  -3.1587409230631239e-03  -2.8587724296927435e-03  -2.5337621715272995e-03  -2.1862306986987238e-03  -1.8188651693677258e-03  -1.4347849399176753e-03  -1.0361794480441694e-03  -6.2391543917393155e-04  -1.8786886142667435e-04  3.1169616249241761e-04  8.6144533628236921e-04  1.3977194766453566e-03  1.8667094928853389e-03  2.2660224024101576e-03  2.6222489331834686e-03  2.9514773118676694e-03  3.2612052062556364e-03  3.5540522261574658e-03  3.8302130703023402e-03  4.0886176806937480e-03  4.3275244503158308e-03  4.5448512984611810e-03  4.7383884395794437e-03  4.9059782282329881e-03  5.0457098988014887e-03  5.1562679167115660e-03  5.2374150349048798e-03  5.2906656921656104e-03  5.3207618241645780e-03  5.3315514540681168e-03  5.3487689459528710e-03  5.3157770053684026e-03  5.4084785704020168e-03  4.9177117962621916e-03  7.3969680589730993e-03  -6.4365260988824393e-03  -3.9566808800263926e-03  -4.4452565056408684e-03  -4.3545436230918002e-03  -4.3859303820658778e-03  -4.3628191186788085e-03  -4.3420669525289267e-03  -4.2974964842607561e-03  -4.2250442576521937e-03  -4.1196492435562936e-03  -3.9795187424468675e-03  -3.8046003688494241e-03  -3.5959238508168341e-03  -3.3551172600116102e-03  -3.0840736296538574e-03  -2.7847942571604190e-03  -2.4592895419155800e-03  -2.1095367909547821e-03  -1.7375285291823530e-03  -1.3455663056631264e-03  -9.3566771795606466e-04  -5.1310811367769288e-04  -7.1436024718491616e-05  4.6361428137143602e-04  1.0592591317634063e-03  1.6287841925693479e-03  2.0792019003795328e-03  2.4193112871864603e-03  2.7259869733439273e-03  3.0181236329637276e-03  3.3004030839945677e-03  3.5724193735810874e-03  3.8322119581469926e-03  4.0773409931734615e-03  4.3051911059262078e-03  4.5131110379856747e-03  4.6985134943459041e-03  4.8589887882119305e-03  4.9924587916256261e-03  5.0974983732762795e-03  5.1737992667396267e-03  5.2228303907840626e-03  5.2493014779785305e-03  5.2570416591270919e-03  5.2717606216138892e-03  5.2368117680264628e-03  5.3281669602449370e-03  4.8359929543493590e-03  7.3148199583643048e-03  -6.4034262909101105e-03  -3.9237102794049154e-03  -4.4125603880993229e-03  -4.3221843489629781e-03  -4.3540390972587649e-03  -4.3314813696581781e-03  -4.3113761499237839e-03  -4.2675273789638622e-03  -4.1958553585890951e-03  -4.0912769780201844e-03  -3.9519731842691105e-03  -3.7778587093604968e-03  -3.5699210409971911e-03  -3.3297316510582783e-03  -3.0591039970039682e-03  -2.7599220098539876e-03  -2.4340149160045951e-03  -2.0830706134690219e-03  -1.7085943828637881e-03  -1.3119964574002292e-03  -8.9454609805742239e-04  -4.6109524307279834e-04  -1.5079956517575270e-05  5.6345519028216061e-04  1.1697429926309469e-03  1.7553705546701280e-03  2.2272930573025889e-03  2.5085162596939917e-03  2.7766215311075064