<?xml version="1.0"?>
<VTKFile type="UnstructuredGrid"  version="0.1"  >
<UnstructuredGrid>
<Piece  NumberOfPoints="1617" NumberOfCells="3072">
<Points>
<DataArray  type="Float64"  NumberOfComponents="3"  format="ascii">0 0 0  0.03125 0 0  0.0625 0 0  0.09375 0 0  0.125 0 0  0.15625 0 0  0.1875 0 0  0.21875 0 0  0.25 0 0  0.28125 0 0  0.3125 0 0  0.34375 0 0  0.375 0 0  0.40625 0 0  0.4375 0 0  0.46875 0 0  0.5 0 0  0.53125 0 0  0.5625 0 0  0.59375 0 0  0.625 0 0  0.65625 0 0  0.6875 0 0  0.71875 0 0  0.75 0 0  0.78125 0 0  0.8125 0 0  0.84375 0 0  0.875 0 0  0.90625 0 0  0.9375 0 0  0.96875 0 0  1 0 0  1.03125 0 0  1.0625 0 0  1.09375 0 0  1.125 0 0  1.15625 0 0  1.1875 0 0  1.21875 0 0  1.25 0 0  1.28125 0 0  1.3125 0 0  1.34375 0 0  1.375 0 0  1.40625 0 0  1.4375 0 0  1.46875 0 0  1.5 0 0  0 0.03125 0  0.03125 0.03125 0  0.0625 0.03125 0  0.09375 0.03125 0  0.125 0.03125 0  0.15625 0.03125 0  0.1875 0.03125 0  0.21875 0.03125 0  0.25 0.03125 0  0.28125 0.03125 0  0.3125 0.03125 0  0.34375 0.03125 0  0.375 0.03125 0  0.40625 0.03125 0  0.4375 0.03125 0  0.46875 0.03125 0  0.5 0.03125 0  0.53125 0.03125 0  0.5625 0.03125 0  0.59375 0.03125 0  0.625 0.03125 0  0.65625 0.03125 0  0.6875 0.03125 0  0.71875 0.03125 0  0.75 0.03125 0  0.78125 0.03125 0  0.8125 0.03125 0  0.84375 0.03125 0  0.875 0.03125 0  0.90625 0.03125 0  0.9375 0.03125 0  0.96875 0.03125 0  1 0.03125 0  1.03125 0.03125 0  1.0625 0.03125 0  1.09375 0.03125 0  1.125 0.03125 0  1.15625 0.03125 0  1.1875 0.03125 0  1.21875 0.03125 0  1.25 0.03125 0  1.28125 0.03125 0  1.3125 0.03125 0  1.34375 0.03125 0  1.375 0.03125 0  1.40625 0.03125 0  1.4375 0.03125 0  1.46875 0.03125 0  1.5 0.03125 0  0 0.0625 0  0.03125 0.0625 0  0.0625 0.0625 0  0.09375 0.0625 0  0.125 0.0625 0  0.15625 0.0625 0  0.1875 0.0625 0  0.21875 0.0625 0  0.25 0.0625 0  0.28125 0.0625 0  0.3125 0.0625 0  0.34375 0.0625 0  0.375 0.0625 0  0.40625 0.0625 0  0.4375 0.0625 0  0.46875 0.0625 0  0.5 0.0625 0  0.53125 0.0625 0  0.5625 0.0625 0  0.59375 0.0625 0  0.625 0.0625 0  0.65625 0.0625 0  0.6875 0.0625 0  0.71875 0.0625 0  0.75 0.0625 0  0.78125 0.0625 0  0.8125 0.0625 0  0.84375 0.0625 0  0.875 0.0625 0  0.90625 0.0625 0  0.9375 0.0625 0  0.96875 0.0625 0  1 0.0625 0  1.03125 0.0625 0  1.0625 0.0625 0  1.09375 0.0625 0  1.125 0.0625 0  1.15625 0.0625 0  1.1875 0.0625 0  1.21875 0.0625 0  1.25 0.0625 0  1.28125 0.0625 0  1.3125 0.0625 0  1.34375 0.0625 0  1.375 0.0625 0  1.40625 0.0625 0  1.4375 0.0625 0  1.46875 0.0625 0  1.5 0.0625 0  0 0.09375 0  0.03125 0.09375 0  0.0625 0.09375 0  0.09375 0.09375 0  0.125 0.09375 0  0.15625 0.09375 0  0.1875 0.09375 0  0.21875 0.09375 0  0.25 0.09375 0  0.28125 0.09375 0  0.3125 0.09375 0  0.34375 0.09375 0  0.375 0.09375 0  0.40625 0.09375 0  0.4375 0.09375 0  0.46875 0.09375 0  0.5 0.09375 0  0.53125 0.09375 0  0.5625 0.09375 0  0.59375 0.09375 0  0.625 0.09375 0  0.65625 0.09375 0  0.6875 0.09375 0  0.71875 0.09375 0  0.75 0.09375 0  0.78125 0.09375 0  0.8125 0.09375 0  0.84375 0.09375 0  0.875 0.09375 0  0.90625 0.09375 0  0.9375 0.09375 0  0.96875 0.09375 0  1 0.09375 0  1.03125 0.09375 0  1.0625 0.09375 0  1.09375 0.09375 0  1.125 0.09375 0  1.15625 0.09375 0  1.1875 0.09375 0  1.21875 0.09375 0  1.25 0.09375 0  1.28125 0.09375 0  1.3125 0.09375 0  1.34375 0.09375 0  1.375 0.09375 0  1.40625 0.09375 0  1.4375 0.09375 0  1.46875 0.09375 0  1.5 0.09375 0  0 0.125 0  0.03125 0.125 0  0.0625 0.125 0  0.09375 0.125 0  0.125 0.125 0  0.15625 0.125 0  0.1875 0.125 0  0.21875 0.125 0  0.25 0.125 0  0.28125 0.125 0  0.3125 0.125 0  0.34375 0.125 0  0.375 0.125 0  0.40625 0.125 0  0.4375 0.125 0  0.46875 0.125 0  0.5 0.125 0  0.53125 0.125 0  0.5625 0.125 0  0.59375 0.125 0  0.625 0.125 0  0.65625 0.125 0  0.6875 0.125 0  0.71875 0.125 0  0.75 0.125 0  0.78125 0.125 0  0.8125 0.125 0  0.84375 0.125 0  0.875 0.125 0  0.90625 0.125 0  0.9375 0.125 0  0.96875 0.125 0  1 0.125 0  1.03125 0.125 0  1.0625 0.125 0  1.09375 0.125 0  1.125 0.125 0  1.15625 0.125 0  1.1875 0.125 0  1.21875 0.125 0  1.25 0.125 0  1.28125 0.125 0  1.3125 0.125 0  1.34375 0.125 0  1.375 0.125 0  1.40625 0.125 0  1.4375 0.125 0  1.46875 0.125 0  1.5 0.125 0  0 0.15625 0  0.03125 0.15625 0  0.0625 0.15625 0  0.09375 0.15625 0  0.125 0.15625 0  0.15625 0.15625 0  0.1875 0.15625 0  0.21875 0.15625 0  0.25 0.15625 0  0.28125 0.15625 0  0.3125 0.15625 0  0.34375 0.15625 0  0.375 0.15625 0  0.40625 0.15625 0  0.4375 0.15625 0  0.46875 0.15625 0  0.5 0.15625 0  0.53125 0.15625 0  0.5625 0.15625 0  0.59375 0.15625 0  0.625 0.15625 0  0.65625 0.15625 0  0.6875 0.15625 0  0.71875 0.15625 0  0.75 0.15625 0  0.78125 0.15625 0  0.8125 0.15625 0  0.84375 0.15625 0  0.875 0.15625 0  0.90625 0.15625 0  0.9375 0.15625 0  0.96875 0.15625 0  1 0.15625 0  1.03125 0.15625 0  1.0625 0.15625 0  1.09375 0.15625 0  1.125 0.15625 0  1.15625 0.15625 0  1.1875 0.15625 0  1.21875 0.15625 0  1.25 0.15625 0  1.28125 0.15625 0  1.3125 0.15625 0  1.34375 0.15625 0  1.375 0.15625 0  1.40625 0.15625 0  1.4375 0.15625 0  1.46875 0.15625 0  1.5 0.15625 0  0 0.1875 0  0.03125 0.1875 0  0.0625 0.1875 0  0.09375 0.1875 0  0.125 0.1875 0  0.15625 0.1875 0  0.1875 0.1875 0  0.21875 0.1875 0  0.25 0.1875 0  0.28125 0.1875 0  0.3125 0.1875 0  0.34375 0.1875 0  0.375 0.1875 0  0.40625 0.1875 0  0.4375 0.1875 0  0.46875 0.1875 0  0.5 0.1875 0  0.53125 0.1875 0  0.5625 0.1875 0  0.59375 0.1875 0  0.625 0.1875 0  0.65625 0.1875 0  0.6875 0.1875 0  0.71875 0.1875 0  0.75 0.1875 0  0.78125 0.1875 0  0.8125 0.1875 0  0.84375 0.1875 0  0.875 0.1875 0  0.90625 0.1875 0  0.9375 0.1875 0  0.96875 0.1875 0  1 0.1875 0  1.03125 0.1875 0  1.0625 0.1875 0  1.09375 0.1875 0  1.125 0.1875 0  1.15625 0.1875 0  1.1875 0.1875 0  1.21875 0.1875 0  1.25 0.1875 0  1.28125 0.1875 0  1.3125 0.1875 0  1.34375 0.1875 0  1.375 0.1875 0  1.40625 0.1875 0  1.4375 0.1875 0  1.46875 0.1875 0  1.5 0.1875 0  0 0.21875 0  0.03125 0.21875 0  0.0625 0.21875 0  0.09375 0.21875 0  0.125 0.21875 0  0.15625 0.21875 0  0.1875 0.21875 0  0.21875 0.21875 0  0.25 0.21875 0  0.28125 0.21875 0  0.3125 0.21875 0  0.34375 0.21875 0  0.375 0.21875 0  0.40625 0.21875 0  0.4375 0.21875 0  0.46875 0.21875 0  0.5 0.21875 0  0.53125 0.21875 0  0.5625 0.21875 0  0.59375 0.21875 0  0.625 0.21875 0  0.65625 0.21875 0  0.6875 0.21875 0  0.71875 0.21875 0  0.75 0.21875 0  0.78125 0.21875 0  0.8125 0.21875 0  0.84375 0.21875 0  0.875 0.21875 0  0.90625 0.21875 0  0.9375 0.21875 0  0.96875 0.21875 0  1 0.21875 0  1.03125 0.21875 0  1.0625 0.21875 0  1.09375 0.21875 0  1.125 0.21875 0  1.15625 0.21875 0  1.1875 0.21875 0  1.21875 0.21875 0  1.25 0.21875 0  1.28125 0.21875 0  1.3125 0.21875 0  1.34375 0.21875 0  1.375 0.21875 0  1.40625 0.21875 0  1.4375 0.21875 0  1.46875 0.21875 0  1.5 0.21875 0  0 0.25 0  0.03125 0.25 0  0.0625 0.25 0  0.09375 0.25 0  0.125 0.25 0  0.15625 0.25 0  0.1875 0.25 0  0.21875 0.25 0  0.25 0.25 0  0.28125 0.25 0  0.3125 0.25 0  0.34375 0.25 0  0.375 0.25 0  0.40625 0.25 0  0.4375 0.25 0  0.46875 0.25 0  0.5 0.25 0  0.53125 0.25 0  0.5625 0.25 0  0.59375 0.25 0  0.625 0.25 0  0.65625 0.25 0  0.6875 0.25 0  0.71875 0.25 0  0.75 0.25 0  0.78125 0.25 0  0.8125 0.25 0  0.84375 0.25 0  0.875 0.25 0  0.90625 0.25 0  0.9375 0.25 0  0.96875 0.25 0  1 0.25 0  1.03125 0.25 0  1.0625 0.25 0  1.09375 0.25 0  1.125 0.25 0  1.15625 0.25 0  1.1875 0.25 0  1.21875 0.25 0  1.25 0.25 0  1.28125 0.25 0  1.3125 0.25 0  1.34375 0.25 0  1.375 0.25 0  1.40625 0.25 0  1.4375 0.25 0  1.46875 0.25 0  1.5 0.25 0  0 0.28125 0  0.03125 0.28125 0  0.0625 0.28125 0  0.09375 0.28125 0  0.125 0.28125 0  0.15625 0.28125 0  0.1875 0.28125 0  0.21875 0.28125 0  0.25 0.28125 0  0.28125 0.28125 0  0.3125 0.28125 0  0.34375 0.28125 0  0.375 0.28125 0  0.40625 0.28125 0  0.4375 0.28125 0  0.46875 0.28125 0  0.5 0.28125 0  0.53125 0.28125 0  0.5625 0.28125 0  0.59375 0.28125 0  0.625 0.28125 0  0.65625 0.28125 0  0.6875 0.28125 0  0.71875 0.28125 0  0.75 0.28125 0  0.78125 0.28125 0  0.8125 0.28125 0  0.84375 0.28125 0  0.875 0.28125 0  0.90625 0.28125 0  0.9375 0.28125 0  0.96875 0.28125 0  1 0.28125 0  1.03125 0.28125 0  1.0625 0.28125 0  1.09375 0.28125 0  1.125 0.28125 0  1.15625 0.28125 0  1.1875 0.28125 0  1.21875 0.28125 0  1.25 0.28125 0  1.28125 0.28125 0  1.3125 0.28125 0  1.34375 0.28125 0  1.375 0.28125 0  1.40625 0.28125 0  1.4375 0.28125 0  1.46875 0.28125 0  1.5 0.28125 0  0 0.3125 0  0.03125 0.3125 0  0.0625 0.3125 0  0.09375 0.3125 0  0.125 0.3125 0  0.15625 0.3125 0  0.1875 0.3125 0  0.21875 0.3125 0  0.25 0.3125 0  0.28125 0.3125 0  0.3125 0.3125 0  0.34375 0.3125 0  0.375 0.3125 0  0.40625 0.3125 0  0.4375 0.3125 0  0.46875 0.3125 0  0.5 0.3125 0  0.53125 0.3125 0  0.5625 0.3125 0  0.59375 0.3125 0  0.625 0.3125 0  0.65625 0.3125 0  0.6875 0.3125 0  0.71875 0.3125 0  0.75 0.3125 0  0.78125 0.3125 0  0.8125 0.3125 0  0.84375 0.3125 0  0.875 0.3125 0  0.90625 0.3125 0  0.9375 0.3125 0  0.96875 0.3125 0  1 0.3125 0  1.03125 0.3125 0  1.0625 0.3125 0  1.09375 0.3125 0  1.125 0.3125 0  1.15625 0.3125 0  1.1875 0.3125 0  1.21875 0.3125 0  1.25 0.3125 0  1.28125 0.3125 0  1.3125 0.3125 0  1.34375 0.3125 0  1.375 0.3125 0  1.40625 0.3125 0  1.4375 0.3125 0  1.46875 0.3125 0  1.5 0.3125 0  0 0.34375 0  0.03125 0.34375 0  0.0625 0.34375 0  0.09375 0.34375 0  0.125 0.34375 0  0.15625 0.34375 0  0.1875 0.34375 0  0.21875 0.34375 0  0.25 0.34375 0  0.28125 0.34375 0  0.3125 0.34375 0  0.34375 0.34375 0  0.375 0.34375 0  0.40625 0.34375 0  0.4375 0.34375 0  0.46875 0.34375 0  0.5 0.34375 0  0.53125 0.34375 0  0.5625 0.34375 0  0.59375 0.34375 0  0.625 0.34375 0  0.65625 0.34375 0  0.6875 0.34375 0  0.71875 0.34375 0  0.75 0.34375 0  0.78125 0.34375 0  0.8125 0.34375 0  0.84375 0.34375 0  0.875 0.34375 0  0.90625 0.34375 0  0.9375 0.34375 0  0.96875 0.34375 0  1 0.34375 0  1.03125 0.34375 0  1.0625 0.34375 0  1.09375 0.34375 0  1.125 0.34375 0  1.15625 0.34375 0  1.1875 0.34375 0  1.21875 0.34375 0  1.25 0.34375 0  1.28125 0.34375 0  1.3125 0.34375 0  1.34375 0.34375 0  1.375 0.34375 0  1
[...]
<PointData  Scalars="f_49"> 
<DataArray  type="Float64"  Name="f_49"  format="ascii">1.5747522011271851e-02  1.3695879760794619e-02  1.3534611079535399e-02  1.3386201655092385e-02  1.3185946075950000e-02  1.2940637180450644e-02  1.2644350144404626e-02  1.2292749518246535e-02  1.1885914219926866e-02  1.1426379317463119e-02  1.0917594954992475e-02  1.0363199762721624e-02  9.7667305326923672e-03  9.1315360384017063e-03  8.4607670835419833e-03  7.7573936524008708e-03  7.0242321341664384e-03  6.2639780691465512e-03  5.4792435037874353e-03  4.6725986435133624e-03  3.8466168861545063e-03  3.0039212436357280e-03  2.1472290159853464e-03  1.2793907332843721e-03  4.0341918274238971e-04  -4.7749495080316457e-04  -1.3599826535086294e-03  -2.2405108819222638e-03  -3.1154087281587348e-03  -3.9809007341164793e-03  -4.8331417973635910e-03  -5.6682483382572658e-03  -6.4823215166729675e-03  -7.2714599064863808e-03  -8.0317601783674811e-03  -8.7593075201237124e-03  -9.4501526296309080e-03  -1.0100292309905253e-02  -1.0705624391349828e-02  -1.1261972411271734e-02  -1.1765121023585743e-02  -1.2210740642666517e-02  -1.2597076152372239e-02  -1.2916742717382287e-02  -1.3214041610314753e-02  -1.3386827562923606e-02  -1.3847619394202726e-02  -1.3330359640732262e-02  -1.5971626007814328e-02  1.5179096752358895e-02  1.2353800968922642e-02  1.2559221163757463e-02  1.2406307825357290e-02  1.2256863482533051e-02  1.2057236127515690e-02  1.1806875916439415e-02  1.1499704664732475e-02  1.1136238847717174e-02  1.0719448884801171e-02  1.0253053263736593e-02  9.7408079615956440e-03  9.1863019535058602e-03  8.5929164519860865e-03  7.9638357325601625e-03  7.3020717990902916e-03  6.6104936211219094e-03  5.8918596330094922e-03  5.1488537452490137e-03  4.3841249172773449e-03  3.6003294713085792e-03  2.8001741992639334e-03  1.9864571862266006e-03  1.1621024728801443e-03  3.3018456536427999e-04  -5.0606035304022955e-04  -1.3432378367093862e-03  -2.1778121208402036e-03  -3.0061331308143613e-03  -3.8244684902155900e-03  -4.6290350302890682e-03  -5.4160249945443585e-03  -6.1816235493306572e-03  -6.9220158960989738e-03  -7.6333834648100000e-03  -8.3118906055805342e-03  -8.9536612243534819e-03  -9.5547536218494669e-03  -1.0111125467878519e-02  -1.0618625771752301e-02  -1.1073047158167345e-02  -1.1470087672060385e-02  -1.1807107253426067e-02  -1.2079930540943291e-02  -1.2312260712481791e-02  -1.2467395729563208e-02  -1.2711424715821014e-02  -1.2556161142168254e-02  -1.5132448067721606e-02  1.3740387673517788e-02  1.1055315835497286e-02  1.1373124884858010e-02  1.1175711604762505e-02  1.1084490745004139e-02  1.0932462942090279e-02  1.0735084928268685e-02  1.0480790295359704e-02  1.0170038993884337e-02  9.8060669874119391e-03  9.3927555461184656e-03  8.9338872652760092e-03  8.4330324545981820e-03  7.8935472927775408e-03  7.3186010781336229e-03  6.7112043078770356e-03  6.0742366824150856e-03  5.4104767865478234e-03  4.7226351434691534e-03  4.0133913623055413e-03  3.2854349357479707e-03  2.5415078386563329e-03  1.7844455635312613e-03  1.0172119820202807e-03  2.4292299212700231e-04  -5.3514516317127857e-04  -1.3135645794971470e-03  -2.0887796195562924e-03  -2.8571410600744277e-03  -3.6149435215284275e-03  -4.3584592969225641e-03  -5.0839633745589979e-03  -5.7877469173709221e-03  -6.4661187796486823e-03  -7.1153959947544811e-03  -7.7318859037011677e-03  -8.3118591557256889e-03  -8.8515241312858116e-03  -9.3469823715281938e-03  -9.7942300588128462e-03  -1.0189130177555385e-02  -1.0527467958170975e-02  -1.0806275393505158e-02  -1.1021195078416287e-02  -1.1196111760464277e-02  -1.1284805937982411e-02  -1.1494260795744489e-02  -1.1249032114825112e-02  -1.3842826219284050e-02  1.2608233189386624e-02  1.0004359958884570e-02  1.0307535802844218e-02  1.0119632299556340e-02  1.0073735143349033e-02  9.9544691624913941e-03  9.7985623472994759e-03  9.5869095944102721e-03  9.3200344321493472e-03  9.0009653998245152e-03  8.6333672044755245e-03  8.2208586327432286e-03  7.7668941968395020e-03  7.2747503840492906e-03  6.7475429194668096e-03  6.1882466509951576e-03  5.5997168503399090e-03  4.9847132978926619e-03  4.3459292298928974e-03  3.6860264678782537e-03  3.0076768846952523e-03  2.3136085385349649e-03  1.6066524480409668e-03  8.8978364001551997e-04  1.6614876154493973e-04  -5.6092656192774208e-04  -1.2879536956199192e-03  -2.0113175882367023e-03  -2.7273257891367178e-03  -3.4322589229102713e-03  -4.1224126100042778e-03  -4.7941245121455763e-03  -5.4437846409298284e-03  -6.0678306245219625e-03  -6.6627311906794244e-03  -7.2249624798459084e-03  -7.7509776098220436e-03  -8.2371800970275303e-03  -8.6798823717363551e-03  -9.0753076596859616e-03  -9.4195836270720319e-03  -9.7087763122064904e-03  -9.9403804231062848e-03  -1.0110476595301700e-02  -1.0244262184078059e-02  -1.0296777075187823e-02  -1.0475909756333321e-02  -1.0197389132045745e-02  -1.2798406292203935e-02  1.1604920375146635e-02  9.0161041007465574e-03  9.3323746824504009e-03  9.1743473884052587e-03  9.1570021425823791e-03  9.0651847394350778e-03  8.9436335760845233e-03  8.7676243426684369e-03  8.5385393626345573e-03  8.2588821523445349e-03  7.9319078252435438e-03  7.5609922081703272e-03  7.1494201311268161e-03  6.7003527043618975e-03  6.2168220748293791e-03  5.7017385761467853e-03  5.1579020497346702e-03  4.5880180435908750e-03  3.9947212033465069e-03  3.3806083015673169e-03  2.7482822937448964e-03  2.1004064168980022e-03  1.4397634618419357e-03  7.6931081778235046e-04  9.2218392891817486e-05  -5.8812306375764995e-04  -1.2681294612476731e-03  -1.9440821582424501e-03  -2.6122033442233855e-03  -3.2687290786330083e-03  -3.9099643856222730e-03  -4.5323127651263400e-03  -5.1322805957816856e-03  -5.7064621306934489e-03  -6.2515122623822859e-03  -6.7641143523730343e-03  -7.2409452514720545e-03  -7.6786484081258956e-03  -8.0737971274174071e-03  -8.4229075277781045e-03  -8.7224467442921384e-03  -8.9689157320679783e-03  -9.1603308964267310e-03  -9.2936136508777398e-03  -9.3946181029777431e-03  -9.4196385072158051e-03  -9.5776318835231727e-03  -9.2739093929432651e-03  -1.1861656731098534e-02  1.0715705062390052e-02  8.1346388205930931e-03  8.4683470034674722e-03  8.3298600890200913e-03  8.3328011226144558e-03  8.2655167953563542e-03  8.1722137249791993e-03  8.0262679760799011e-03  7.8297278033575141e-03  7.5843653840398321e-03  7.2930667495247851e-03  6.9589744891499069e-03  6.5851899556723589e-03  6.1747465502045903e-03  5.7305785989683082e-03  5.2555165109418123e-03  4.7522858698940936e-03  4.2235130974531713e-03  3.6717408444178921e-03  3.0994576739870145e-03  2.5091460282775776e-03  1.9033495876753799e-03  1.2847547045350782e-03  6.5627196888413952e-04  2.1095369986290259e-05  -6.1728496075563158e-04  -1.2551294924219906e-03  -1.8885471636018252e-03  -2.5136160129872230e-03  -3.1264920239745782e-03  -3.7234814227717831e-03  -4.3010688057905210e-03  -4.8559077914096058e-03  -5.3847876502457984e-03  -5.8845891743189082e-03  -6.3522404908234378e-03  -6.7846761286475561e-03  -7.1788102346036081e-03  -7.5315052932143070e-03  -7.8395971161723550e-03  -8.0999169210864471e-03  -8.3094070056769220e-03  -8.4666013770871504e-03  -8.5690927047956007e-03  -8.6433339564458925e-03  -8.6461477160928099e-03  -8.7875516636011404e-03  -8.4639896248154423e-03  -1.1044670751254345e-02  9.9288304531450315e-03  7.3524070162214131e-03  7.6993293005725378e-03  7.5748636826517340e-03  7.5950994672266195e-03  7.5486059037764624e-03  7.4786233573511498e-03  7.3583652792067814e-03  7.1898254381444950e-03  6.9741569454410540e-03  6.7139990582467737e-03  6.4122758593598804e-03  6.0719117658012845e-03  5.6958162266578221e-03  5.2868259009631871e-03  4.8476899346226211e-03  4.3810542158429300e-03  3.8894528235879763e-03  3.3753112437213059e-03  2.8409689259073106e-03  2.2887307767563161e-03  1.7209537345128547e-03  1.1401647099274156e-03  5.4919030815067335e-04  -4.8742235932724138e-05  -6.4998085158384476e-04  -1.2505295611025936e-03  -1.8462175763593275e-03  -2.4328981448643911e-03  -3.0066115356294919e-03  -3.5636741069619334e-03  -4.1006919903820143e-03  -4.6145213939403793e-03  -5.1022031590097191e-03  -5.5608933334683770e-03  -5.9878034181539558e-03  -6.3801532269768344e-03  -6.7351453141614309e-03  -7.0499405582577388e-03  -7.3216943344977725e-03  -7.5475900667375112e-03  -7.7249759277017984e-03  -7.8528306511559971e-03  -7.9292844677612880e-03  -7.9812061552740725e-03  -7.9657701278232490e-03  -8.0939762103048683e-03  -7.7562480728678952e-03  -1.0332521309239701e-02  9.2352607675171457e-03  6.6619123965204812e-03  7.0184751316251012e-03  6.9049037150368210e-03  6.9394777417329878e-03  6.9101082893838033e-03  6.8596710877731519e-03  6.7612968613889402e-03  6.6166259470929415e-03  6.4264442119570950e-03  6.1932004389013036e-03  5.9196119572563124e-03  5.6084499288565548e-03  5.2625148981053351e-03  4.8845591332373874e-03  4.4772635255319023e-03  4.0432039788272653e-03  3.5848238253030633e-03  3.1044177947743049e-03  2.6041384350572617e-03  2.0860468131159615e-03  1.5522228793537183e-03  1.0049409861671186e-03  4.4688669314932192e-04  -1.1866009887502555e-04  -6.8777388785919006e-04  -1.2560293186472224e-03  -1.8188063769107022e-03  -2.3716266420237796e-03  -2.9103924892011838e-03  -3.4314779557392074e-03  -3.9316958014529004e-03  -4.4081970589252362e-03  -4.8583538402108325e-03  -5.2796560807081014e-03  -5.6696353926927847e-03  -6.0258146754775090e-03  -6.3456876249967688e-03  -6.6267039886346501e-03  -6.8663178247689366e-03  -7.0620302631146442e-03  -7.2115417216542157e-03  -7.3141962297393137e-03  -7.3685441917099859e-03  -7.4017513235660358e-03  -7.3712344396108850e-03  -7.4888395657515218e-03  -7.1405936484366817e-03  -9.7142957963418305e-03  8.6279565282842575e-03  6.0567513581016984e-03  6.4204051305316173e-03  6.3154831792251393e-03  6.3618117969592852e-03  6.3465838376930055e-03  6.3125111620464256e-03  6.2325392250953257e-03  6.1079996110976094e-03  5.9394544750272626e-03  5.7291677824496618e-03  5.4796789185027599e-03  5.1936353240129591e-03  4.8737486527259295e-03  4.5227098384558774e-03  4.1431574422555279e-03  3.7376238056910324e-03  3.3084831745526146e-03  2.8579044600049253e-03  2.3878235359404277e-03  1.8999809780092744e-03  1.3960517430311745e-03  8.7790854999319720e-04  3.4799644600005193e-04  -1.9031977950109124e-04  -7.3263907730491268e-04  -1.2738018306292093e-03  -1.8084700725693836e-03  -2.3317076234278308e-03  -2.8393080583592866e-03  -3.3278319306292454e-03  -3.7944585069136540e-03  -4.2367761670387962e-03  -4.6525916912569286e-03  -5.0397905381439822e-03  -5.3962511147551103e-03  -5.7198004179235453e-03  -6.0082066428697760e-03  -6.2591794533192035e-03  -6.4704325376151763e-03  -6.6397355818329507e-03  -6.7650784959195024e-03  -6.8460942960617225e-03  -6.8816562540963610e-03  -6.8991376955737900e-03  -6.8561268486748306e-03  -6.9651827574001924e-03  -6.6088660561200337e-03  -9.1808723846677816e-03  8.1015720258436254e-03  5.5319115914562829e-03  5.9008796433823703e-03  5.8028847728907856e-03  5.8587879337393010e-03  5.8551615997421780e-03  5.8346179433553698e-03  5.7699064760808145e-03  5.6621297208811032e-03  5.5116720675246521e-03  5.3206257142774643e-03  5.0913864728583990e-03  4.8265000537883072e-03  4.5286090803971822e-03  4.2003702448951815e-03  3.8444146958798407e-03  3.4632748075428318e-03  3.0593043059508052e-03  2.6345806869835825e-03  2.1908148853764901e-03  1.7293473798187370e-03  1.2512623986242093e-03  7.5778336299832860e-04  2.5092497726366959e-04  -2.6581994902591025e-04  -7.8719232569742826e-04  -1.3067391878853313e-03  -1.8179852696435090e-03  -2.3154383841476073e-03  -2.7949536865948827e-03  -3.2535626848655512e-03  -3.6890822363000110e-03  -4.0997352417588995e-03  -4.4838772123623931e-03  -4.8398356228389131e-03  -5.1658360599398561e-03  -5.4599822539818949e-03  -5.7202743839553961e-03  -5.9446315063687895e-03  -6.1309713341455366e-03  -6.2772718125600072e-03  -6.3817454925873774e-03  -6.4442419803766018e-03  -6.4638749000612292e-03  -6.4681541596782232e-03  -6.4147827191967889e-03  -6.5168993744225750e-03  -6.1542215495856362e-03  -8.7250607861303828e-03  7.6520083559459759e-03  5.0834809987764500e-03  5.4564599713163749e-03  5.3639936868383371e-03  5.4276139863794603e-03  5.4333864228109825e-03  5.4238551647340467e-03  5.3715950346862988e-03  5.2775272259768932e-03  5.1418787974591307e-03  4.9665915020806368e-03  4.7539385873132580e-03  4.5063742575308331e-03  4.2264852458237809e-03  3.9169151716196291e-03  3.5803225631298283e-03  3.2192960583083898e-03  2.8362477338193144e-03  2.4332410388436935e-03  2.0118064870346809e-03  1.5728277742528913e-03  1.1165353878440796e-03  6.4309708141041945e-04  1.5369722292287298e-04  -3.4801259461090980e-04  -8.5513558275449942e-04  -1.3588558122791627e-03  -1.8509525214918787e-03  -2.3254747517650657e-03  -2.7788403945357425e-03  -3.2090973257705617e-03  -3.6151023836697906e-03  -3.9959377684644654e-03  -4.3505920649580931e-03  -4.6778304776636023e-03  -4.9761749307898400e-03  -5.2439356389553963e-03  -5.4792698189986217e-03  -5.6802326339019460e-03  -5.8448756003561270e-03  -5.9713170236148959e-03  -6.0579240962061413e-03  -6.1046960418139739e-03  -6.1109159287717615e-03  -6.1041734186012579e-03  -6.0422409165799985e-03  -6.1387178921482018e-03  -5.7709466006621527e-03  -8.3409416437062039e-03  7.2761093952694381e-03  4.7084151266824185e-03  5.0844026146671176e-03  4.9962947745676332e-03  5.0660349994820367e-03  5.0792816534198397e-03  5.0785306042309946e-03  5.0362050793264484e-03  4.9530743967226192e-03  4.8292240860489891e-03  4.6664600428733541e-03  4.4669378834606135e-03  4.2330175125808011e-03  3.9672263881519480e-03  3.6721959791733371e-03  3.3506293021198438e-03  3.0052223883981349e-03  2.6385420744408604e-03  2.2527678273787191e-03  1.8494023816029970e-03  1.4288964893734359e-03  9.9031349578502918e-04  5.3213832055251111e-04  5.3761182507809032e-05  -4.4104469981668233e-04  -9.4198374115409705e-04  -1.4357924329845497e-03  -1.9118345234856548e-03  -2.3644700535621933e-03  -2.7918397217407687e-03  -3.1938962960925423e-03  -3.5710118866651274e-03  -3.9232852259553736e-03  -4.2503118194189889e-03  -4.5511868001690417e-03  -4.8245981788228353e-03  -5.0689380360737571e-03  -5.2824114701876014e-03  -5.4631167732909951e-03  -5.6091593924549486e-03  -5.7187275060204927e-03  -5.7902777735326432e-03  -5.8238993920180079e-03  -5.8189850782773842e-03  -5.8031601060142858e-03  -5.7342313865204912e-03  -5.8261565315492394e-03  -5.4542994127535433e-03  -8.0236609566564747e-03  6.9714602204834488e-03  4.4043726480335939e-03  4.7825713743452018e-03  4.6978200238529198e-03  4.7722904034745144e-03  4.7913182963739941e-03  4.7973642798535120e-03  4.7627206341743075e-03  4.6880268774332316e-03  4.5732395938625388e-03  4.4200352022867621e-03  4.2304460499647855e-03  4.0067210310654189e-03  3.7513010730202381e-03  3.4667714943492443e-03  3.1558526225266394e-03  2.8213517347692916e-03  2.4660529613267693e-03  2.0924135223033945e-03  1.7022214414967624e-03  1.2957155694462298e-03  8.7066664485882387e-04  4.2297087265224235e-04  -5.2346447455548718e-05  -5.5137143633968708e-04  -1.0561461773037273e-03  -1.5451241312586256e-03  -2.0053122840260396e-03  -2.4339265374813822e-03  -2.8330016641819841e-03  -3.2054927351383702e-03  -3.5535897769608535e-03  -3.8783033799160475e-03  -4.1795859356220846e-03  -4.4565996490035014e-03  -4.7079742047772986e-03  -4.9320078107194581e-03  -5.1268201884058133e-03  -5.2904513998260428e-03  -5.4209813234340227e-03  -5.5166027945251477e-03  -5.5758049766127899e-03  -5.5987177648520979e-03  -5.5847955393325700e-03  -5.5616675616111328e-03  -5.4871502794588507e-03  -5.5754715829988187e-03  -5.2003856136210221e-03  -7.7692646514886622e-03  6.7362470698479936e-03  4.1695917859311147e-03  4.5493531991817378e-03  4.4670831576637485e-03  4.5450595164392548e-03  4.5683689392623690e-03  4.5794464292746124e-03  4.5504737905558102e-03  4.4819813543641720e-03  4.3738097940584269e-03  4.2275116072351604e-03  4.0449886170438251e-03  3.8283549629050755e-03  3.5799191814529317e-03  3.3021488784163869e-03  2.9976871989632345e-03  2.6693480967077063e-03  2.3200579045950151e-03  1.9526268414910349e-03  1.5695152584747605e-03  1.1713146216969297e-03  7.5528357241797417e-04  3.1354163933881569e-04  -1.6982230143631135e-04  -6.8922672579871120e-04  -1.2095303611811463e-03  -1.6951248860362866e-03  -2.1336888443317264e-03  -2.5314858570471281e-03  -2.8974545650607398e-03  -3.2381364640947691e-03  -3.5571499248915088e-03  -3.8558000955161631e-03  -4.1338404539994272e-03  -4.3900817574117077e-03  -4.6228054616754000e-03  -4.8300225046834910e-03  -5.0096386942162117e-03  -5.1595480225750234e-03  -5.2777411714635940e-03  -5.3623660441697212e-03  -5.4119019691133115e-03  -5.4264840774112220e-03  -5.4055933990951981e-03  -5.3768441233698573e-03  -5.2980467591304172e-03  -5.3836236980345292e-03  -5.0060824381435703e-03  -7.5745993738639897e-03  6.5691561691699537e-03  4.0027964601582235e-03  4.3835822803177521e-03  4.3030134005939960e-03  4.3834013483980199e-03  4.4096500312344302e-03  4.4241781249153705e-03  4.3990804121431448e-03  4.3348021233626218e-03  4.2310878286290236e-03  4.0893810157556143e-03  3.9114580570339275e-03  3.6992875290910343e-03  3.4550087852606198e-03  3.1808945910799902e-03  2.8793729548816007e-03  2.5530398806443318e-03  2.2046501147496714e-03  1.8370454507639130e-03  1.4531892889384659e-03  1.0545851498812155e-03  6.4092792501033841e-04  2.0082508033328271e-04  -3.0639814043902878e-04  -8.6654379048883346e-04  -1.4127446457420142e-03  -1.8882443130809657e-03  -2.2901165599671378e-03  -2.6460031428118145e-03  -2.9735059229246681e-03  -3.2814151145833725e-03  -3.5730768461405197e-03  -3.8488687187745326e-03  -4.1075808387070426e-03  -4.3472252079869737e-03  -4.5654840287109120e-03  -4.7599433168242266e-03  -4.9282189387609898e-03  -5.0680142233572477e-03  -5.1772007803508827e-03  -5.2538579861103694e-03  -5.2964332270586806e-03  -5.3050477839895731e-03  -5.2791878621385327e-03  -5.2464455557253813e-03  -5.1646186555654363e-03  -5.2482575851046228e-03  -4.8689916516479921e-03  -7.4372531074850933e-03  6.4692998732166747e-03  3.9031251231137591e-03  4.2844756045380544e-03  4.2048950151205430e-03  4.2866951452569663e-03  4.3146595771107544e-03  4.3312012232773226e-03  4.3083562740366807e-03  4.2465156283719874e-03  4.1453591687418178e-03  4.0062539689420884e-03  3.8308827134601806e-03  3.6210963687878283e-03  3.3788826110567713e-03  3.1063130187241193e-03  2.8055422745654800e-03  2.4787860533563217e-03  2.1282724107862323e-03  1.7561549114325516e-03  1.3645379349605518e-03  9.5462502112966601e-04  5.3033464647850282e-04  8.3852221091162288e-05  -4.6024024720445742e-04  -1.0679213431227588e-03  -1.6482369747824197e-03  -2.1045955732820545e-03  -2.4460274855009146e-03  -2.7510780902583643e-03  -3.0403726689802184e-03  -3.3200264949662366e-03  -3.5903989502544635e-03  -3.8496520737328140e-03  -4.0950985409794957e-03  -4.3237768678258673e-03  -4.5327344131189228e-03  -4.7191473125689576e-03  -4.8803690388122120e-03  -5.0139368840035068e-03  -5.1176199229745678e-03  -5.1894370817283193e-03  -5.2278039290731045e-03  -5.2328251723682004e-03  -5.2039831651485265e-03  -5.1688511918988002e-03  -5.0852147897559492e-03  -5.1676925517848736e-03  -4.7874125867055127e-03  -7.3555202563731961e-03  6.4361652665865486e-03  3.8700799203463419e-03  4.2515833345327788e-03  4.1723184736449630e-03  4.2545896892489891e-03  4.2831208452245627e-03  4.3003311768067690e-03  4.2782312562650989e-03  4.2171947877617348e-03  4.1168794718584841e-03  3.9786263475441791e-03  3.8040851004525231e-03  3.5950640695876866e-03  3.3534938967451377e-03  3.0813663774175316e-03  2.7807190813049021e-03  2.4535874903719211e-03  2.1019126807214094e-03  1.7273649507315498e-03  1.3311554394893771e-03  9.1371246500709588e-04  4.7845129844896917e-04  2.7394274602566017e-05  -5.6104700202803308e-04  -1.1800241863117074e-03  -1.7768480748943539e-03  -2.2545472433419620e-03  -2.5363670827258044e-03  -2.8022884727661383e-03 