<?xml version="1.0"?>
<VTKFile type="UnstructuredGrid"  version="0.1"  >
<UnstructuredGrid>
<Piece  NumberOfPoints="1617" NumberOfCells="3072">
<Points>
<DataArray  type="Float64"  NumberOfComponents="3"  format="ascii">0 0 0  0.03125 0 0  0.0625 0 0  0.09375 0 0  0.125 0 0  0.15625 0 0  0.1875 0 0  0.21875 0 0  0.25 0 0  0.28125 0 0  0.3125 0 0  0.34375 0 0  0.375 0 0  0.40625 0 0  0.4375 0 0  0.46875 0 0  0.5 0 0  0.53125 0 0  0.5625 0 0  0.59375 0 0  0.625 0 0  0.65625 0 0  0.6875 0 0  0.71875 0 0  0.75 0 0  0.78125 0 0  0.8125 0 0  0.84375 0 0  0.875 0 0  0.90625 0 0  0.9375 0 0  0.96875 0 0  1 0 0  1.03125 0 0  1.0625 0 0  1.09375 0 0  1.125 0 0  1.15625 0 0  1.1875 0 0  1.21875 0 0  1.25 0 0  1.28125 0 0  1.3125 0 0  1.34375 0 0  1.375 0 0  1.40625 0 0  1.4375 0 0  1.46875 0 0  1.5 0 0  0 0.03125 0  0.03125 0.03125 0  0.0625 0.03125 0  0.09375 0.03125 0  0.125 0.03125 0  0.15625 0.03125 0  0.1875 0.03125 0  0.21875 0.03125 0  0.25 0.03125 0  0.28125 0.03125 0  0.3125 0.03125 0  0.34375 0.03125 0  0.375 0.03125 0  0.40625 0.03125 0  0.4375 0.03125 0  0.46875 0.03125 0  0.5 0.03125 0  0.53125 0.03125 0  0.5625 0.03125 0  0.59375 0.03125 0  0.625 0.03125 0  0.65625 0.03125 0  0.6875 0.03125 0  0.71875 0.03125 0  0.75 0.03125 0  0.78125 0.03125 0  0.8125 0.03125 0  0.84375 0.03125 0  0.875 0.03125 0  0.90625 0.03125 0  0.9375 0.03125 0  0.96875 0.03125 0  1 0.03125 0  1.03125 0.03125 0  1.0625 0.03125 0  1.09375 0.03125 0  1.125 0.03125 0  1.15625 0.03125 0  1.1875 0.03125 0  1.21875 0.03125 0  1.25 0.03125 0  1.28125 0.03125 0  1.3125 0.03125 0  1.34375 0.03125 0  1.375 0.03125 0  1.40625 0.03125 0  1.4375 0.03125 0  1.46875 0.03125 0  1.5 0.03125 0  0 0.0625 0  0.03125 0.0625 0  0.0625 0.0625 0  0.09375 0.0625 0  0.125 0.0625 0  0.15625 0.0625 0  0.1875 0.0625 0  0.21875 0.0625 0  0.25 0.0625 0  0.28125 0.0625 0  0.3125 0.0625 0  0.34375 0.0625 0  0.375 0.0625 0  0.40625 0.0625 0  0.4375 0.0625 0  0.46875 0.0625 0  0.5 0.0625 0  0.53125 0.0625 0  0.5625 0.0625 0  0.59375 0.0625 0  0.625 0.0625 0  0.65625 0.0625 0  0.6875 0.0625 0  0.71875 0.0625 0  0.75 0.0625 0  0.78125 0.0625 0  0.8125 0.0625 0  0.84375 0.0625 0  0.875 0.0625 0  0.90625 0.0625 0  0.9375 0.0625 0  0.96875 0.0625 0  1 0.0625 0  1.03125 0.0625 0  1.0625 0.0625 0  1.09375 0.0625 0  1.125 0.0625 0  1.15625 0.0625 0  1.1875 0.0625 0  1.21875 0.0625 0  1.25 0.0625 0  1.28125 0.0625 0  1.3125 0.0625 0  1.34375 0.0625 0  1.375 0.0625 0  1.40625 0.0625 0  1.4375 0.0625 0  1.46875 0.0625 0  1.5 0.0625 0  0 0.09375 0  0.03125 0.09375 0  0.0625 0.09375 0  0.09375 0.09375 0  0.125 0.09375 0  0.15625 0.09375 0  0.1875 0.09375 0  0.21875 0.09375 0  0.25 0.09375 0  0.28125 0.09375 0  0.3125 0.09375 0  0.34375 0.09375 0  0.375 0.09375 0  0.40625 0.09375 0  0.4375 0.09375 0  0.46875 0.09375 0  0.5 0.09375 0  0.53125 0.09375 0  0.5625 0.09375 0  0.59375 0.09375 0  0.625 0.09375 0  0.65625 0.09375 0  0.6875 0.09375 0  0.71875 0.09375 0  0.75 0.09375 0  0.78125 0.09375 0  0.8125 0.09375 0  0.84375 0.09375 0  0.875 0.09375 0  0.90625 0.09375 0  0.9375 0.09375 0  0.96875 0.09375 0  1 0.09375 0  1.03125 0.09375 0  1.0625 0.09375 0  1.09375 0.09375 0  1.125 0.09375 0  1.15625 0.09375 0  1.1875 0.09375 0  1.21875 0.09375 0  1.25 0.09375 0  1.28125 0.09375 0  1.3125 0.09375 0  1.34375 0.09375 0  1.375 0.09375 0  1.40625 0.09375 0  1.4375 0.09375 0  1.46875 0.09375 0  1.5 0.09375 0  0 0.125 0  0.03125 0.125 0  0.0625 0.125 0  0.09375 0.125 0  0.125 0.125 0  0.15625 0.125 0  0.1875 0.125 0  0.21875 0.125 0  0.25 0.125 0  0.28125 0.125 0  0.3125 0.125 0  0.34375 0.125 0  0.375 0.125 0  0.40625 0.125 0  0.4375 0.125 0  0.46875 0.125 0  0.5 0.125 0  0.53125 0.125 0  0.5625 0.125 0  0.59375 0.125 0  0.625 0.125 0  0.65625 0.125 0  0.6875 0.125 0  0.71875 0.125 0  0.75 0.125 0  0.78125 0.125 0  0.8125 0.125 0  0.84375 0.125 0  0.875 0.125 0  0.90625 0.125 0  0.9375 0.125 0  0.96875 0.125 0  1 0.125 0  1.03125 0.125 0  1.0625 0.125 0  1.09375 0.125 0  1.125 0.125 0  1.15625 0.125 0  1.1875 0.125 0  1.21875 0.125 0  1.25 0.125 0  1.28125 0.125 0  1.3125 0.125 0  1.34375 0.125 0  1.375 0.125 0  1.40625 0.125 0  1.4375 0.125 0  1.46875 0.125 0  1.5 0.125 0  0 0.15625 0  0.03125 0.15625 0  0.0625 0.15625 0  0.09375 0.15625 0  0.125 0.15625 0  0.15625 0.15625 0  0.1875 0.15625 0  0.21875 0.15625 0  0.25 0.15625 0  0.28125 0.15625 0  0.3125 0.15625 0  0.34375 0.15625 0  0.375 0.15625 0  0.40625 0.15625 0  0.4375 0.15625 0  0.46875 0.15625 0  0.5 0.15625 0  0.53125 0.15625 0  0.5625 0.15625 0  0.59375 0.15625 0  0.625 0.15625 0  0.65625 0.15625 0  0.6875 0.15625 0  0.71875 0.15625 0  0.75 0.15625 0  0.78125 0.15625 0  0.8125 0.15625 0  0.84375 0.15625 0  0.875 0.15625 0  0.90625 0.15625 0  0.9375 0.15625 0  0.96875 0.15625 0  1 0.15625 0  1.03125 0.15625 0  1.0625 0.15625 0  1.09375 0.15625 0  1.125 0.15625 0  1.15625 0.15625 0  1.1875 0.15625 0  1.21875 0.15625 0  1.25 0.15625 0  1.28125 0.15625 0  1.3125 0.15625 0  1.34375 0.15625 0  1.375 0.15625 0  1.40625 0.15625 0  1.4375 0.15625 0  1.46875 0.15625 0  1.5 0.15625 0  0 0.1875 0  0.03125 0.1875 0  0.0625 0.1875 0  0.09375 0.1875 0  0.125 0.1875 0  0.15625 0.1875 0  0.1875 0.1875 0  0.21875 0.1875 0  0.25 0.1875 0  0.28125 0.1875 0  0.3125 0.1875 0  0.34375 0.1875 0  0.375 0.1875 0  0.40625 0.1875 0  0.4375 0.1875 0  0.46875 0.1875 0  0.5 0.1875 0  0.53125 0.1875 0  0.5625 0.1875 0  0.59375 0.1875 0  0.625 0.1875 0  0.65625 0.1875 0  0.6875 0.1875 0  0.71875 0.1875 0  0.75 0.1875 0  0.78125 0.1875 0  0.8125 0.1875 0  0.84375 0.1875 0  0.875 0.1875 0  0.90625 0.1875 0  0.9375 0.1875 0  0.96875 0.1875 0  1 0.1875 0  1.03125 0.1875 0  1.0625 0.1875 0  1.09375 0.1875 0  1.125 0.1875 0  1.15625 0.1875 0  1.1875 0.1875 0  1.21875 0.1875 0  1.25 0.1875 0  1.28125 0.1875 0  1.3125 0.1875 0  1.34375 0.1875 0  1.375 0.1875 0  1.40625 0.1875 0  1.4375 0.1875 0  1.46875 0.1875 0  1.5 0.1875 0  0 0.21875 0  0.03125 0.21875 0  0.0625 0.21875 0  0.09375 0.21875 0  0.125 0.21875 0  0.15625 0.21875 0  0.1875 0.21875 0  0.21875 0.21875 0  0.25 0.21875 0  0.28125 0.21875 0  0.3125 0.21875 0  0.34375 0.21875 0  0.375 0.21875 0  0.40625 0.21875 0  0.4375 0.21875 0  0.46875 0.21875 0  0.5 0.21875 0  0.53125 0.21875 0  0.5625 0.21875 0  0.59375 0.21875 0  0.625 0.21875 0  0.65625 0.21875 0  0.6875 0.21875 0  0.71875 0.21875 0  0.75 0.21875 0  0.78125 0.21875 0  0.8125 0.21875 0  0.84375 0.21875 0  0.875 0.21875 0  0.90625 0.21875 0  0.9375 0.21875 0  0.96875 0.21875 0  1 0.21875 0  1.03125 0.21875 0  1.0625 0.21875 0  1.09375 0.21875 0  1.125 0.21875 0  1.15625 0.21875 0  1.1875 0.21875 0  1.21875 0.21875 0  1.25 0.21875 0  1.28125 0.21875 0  1.3125 0.21875 0  1.34375 0.21875 0  1.375 0.21875 0  1.40625 0.21875 0  1.4375 0.21875 0  1.46875 0.21875 0  1.5 0.21875 0  0 0.25 0  0.03125 0.25 0  0.0625 0.25 0  0.09375 0.25 0  0.125 0.25 0  0.15625 0.25 0  0.1875 0.25 0  0.21875 0.25 0  0.25 0.25 0  0.28125 0.25 0  0.3125 0.25 0  0.34375 0.25 0  0.375 0.25 0  0.40625 0.25 0  0.4375 0.25 0  0.46875 0.25 0  0.5 0.25 0  0.53125 0.25 0  0.5625 0.25 0  0.59375 0.25 0  0.625 0.25 0  0.65625 0.25 0  0.6875 0.25 0  0.71875 0.25 0  0.75 0.25 0  0.78125 0.25 0  0.8125 0.25 0  0.84375 0.25 0  0.875 0.25 0  0.90625 0.25 0  0.9375 0.25 0  0.96875 0.25 0  1 0.25 0  1.03125 0.25 0  1.0625 0.25 0  1.09375 0.25 0  1.125 0.25 0  1.15625 0.25 0  1.1875 0.25 0  1.21875 0.25 0  1.25 0.25 0  1.28125 0.25 0  1.3125 0.25 0  1.34375 0.25 0  1.375 0.25 0  1.40625 0.25 0  1.4375 0.25 0  1.46875 0.25 0  1.5 0.25 0  0 0.28125 0  0.03125 0.28125 0  0.0625 0.28125 0  0.09375 0.28125 0  0.125 0.28125 0  0.15625 0.28125 0  0.1875 0.28125 0  0.21875 0.28125 0  0.25 0.28125 0  0.28125 0.28125 0  0.3125 0.28125 0  0.34375 0.28125 0  0.375 0.28125 0  0.40625 0.28125 0  0.4375 0.28125 0  0.46875 0.28125 0  0.5 0.28125 0  0.53125 0.28125 0  0.5625 0.28125 0  0.59375 0.28125 0  0.625 0.28125 0  0.65625 0.28125 0  0.6875 0.28125 0  0.71875 0.28125 0  0.75 0.28125 0  0.78125 0.28125 0  0.8125 0.28125 0  0.84375 0.28125 0  0.875 0.28125 0  0.90625 0.28125 0  0.9375 0.28125 0  0.96875 0.28125 0  1 0.28125 0  1.03125 0.28125 0  1.0625 0.28125 0  1.09375 0.28125 0  1.125 0.28125 0  1.15625 0.28125 0  1.1875 0.28125 0  1.21875 0.28125 0  1.25 0.28125 0  1.28125 0.28125 0  1.3125 0.28125 0  1.34375 0.28125 0  1.375 0.28125 0  1.40625 0.28125 0  1.4375 0.28125 0  1.46875 0.28125 0  1.5 0.28125 0  0 0.3125 0  0.03125 0.3125 0  0.0625 0.3125 0  0.09375 0.3125 0  0.125 0.3125 0  0.15625 0.3125 0  0.1875 0.3125 0  0.21875 0.3125 0  0.25 0.3125 0  0.28125 0.3125 0  0.3125 0.3125 0  0.34375 0.3125 0  0.375 0.3125 0  0.40625 0.3125 0  0.4375 0.3125 0  0.46875 0.3125 0  0.5 0.3125 0  0.53125 0.3125 0  0.5625 0.3125 0  0.59375 0.3125 0  0.625 0.3125 0  0.65625 0.3125 0  0.6875 0.3125 0  0.71875 0.3125 0  0.75 0.3125 0  0.78125 0.3125 0  0.8125 0.3125 0  0.84375 0.3125 0  0.875 0.3125 0  0.90625 0.3125 0  0.9375 0.3125 0  0.96875 0.3125 0  1 0.3125 0  1.03125 0.3125 0  1.0625 0.3125 0  1.09375 0.3125 0  1.125 0.3125 0  1.15625 0.3125 0  1.1875 0.3125 0  1.21875 0.3125 0  1.25 0.3125 0  1.28125 0.3125 0  1.3125 0.3125 0  1.34375 0.3125 0  1.375 0.3125 0  1.40625 0.3125 0  1.4375 0.3125 0  1.46875 0.3125 0  1.5 0.3125 0  0 0.34375 0  0.03125 0.34375 0  0.0625 0.34375 0  0.09375 0.34375 0  0.125 0.34375 0  0.15625 0.34375 0  0.1875 0.34375 0  0.21875 0.34375 0  0.25 0.34375 0  0.28125 0.34375 0  0.3125 0.34375 0  0.34375 0.34375 0  0.375 0.34375 0  0.40625 0.34375 0  0.4375 0.34375 0  0.46875 0.34375 0  0.5 0.34375 0  0.53125 0.34375 0  0.5625 0.34375 0  0.59375 0.34375 0  0.625 0.34375 0  0.65625 0.34375 0  0.6875 0.34375 0  0.71875 0.34375 0  0.75 0.34375 0  0.78125 0.34375 0  0.8125 0.34375 0  0.84375 0.34375 0  0.875 0.34375 0  0.90625 0.34375 0  0.9375 0.34375 0  0.96875 0.34375 0  1 0.34375 0  1.03125 0.34375 0  1.0625 0.34375 0  1.09375 0.34375 0  1.125 0.34375 0  1.15625 0.34375 0  1.1875 0.34375 0  1.21875 0.34375 0  1.25 0.34375 0  1.28125 0.34375 0  1.3125 0.34375 0  1.34375 0.34375 0  1.375 0.34375 0  1
[...]
<PointData  Scalars="f_49"> 
<DataArray  type="Float64"  Name="f_49"  format="ascii">-1.0501630860653871e-01  -9.9751072803966834e-02  -9.5649047887993055e-02  -9.1516350866362811e-02  -8.7343664035247487e-02  -8.3201066981437546e-02  -7.9077736588905170e-02  -7.4955978167026982e-02  -7.0820801102880859e-02  -6.6662653839404479e-02  -6.2476989192420146e-02  -5.8262542543005537e-02  -5.4019746440712890e-02  -4.9749667919541149e-02  -4.5453437665011372e-02  -4.1132000975159795e-02  -3.6786047377774606e-02  -3.2416034333016111e-02  -2.8022264717124410e-02  -2.3605000199007145e-02  -1.9164599728122369e-02  -1.4701671380480395e-02  -1.0217221842950097e-02  -5.7127844049290628e-03  -1.1905060535143976e-03  3.3468214045280047e-03  7.8957925372375743e-03  1.2452477021241425e-02  1.7012550828223102e-02  2.1571448203241545e-02  2.6124511577939671e-02  3.0667119871043667e-02  3.5194782901035532e-02  3.9703195314910955e-02  4.4188255611132661e-02  4.8646050708703703e-02  5.3072851421577763e-02  5.7465115627874055e-02  6.1819740181642713e-02  6.6134524324646754e-02  7.0409622829899557e-02  7.4649815910277653e-02  7.8865753809867517e-02  8.3084469178696010e-02  8.7315099846088470e-02  9.1720923134716428e-02  9.5829238611651865e-02  1.0019275410853640e-01  1.0496262852656045e-01  -1.0510848676377386e-01  -9.9523852032136734e-02  -9.5406584045999984e-02  -9.1238659430308497e-02  -8.7029358824717865e-02  -8.2878040823820914e-02  -7.8757860883153966e-02  -7.4643599402849731e-02  -7.0516991649723262e-02  -6.6367296250257862e-02  -6.2189524550991471e-02  -5.7982348767135074e-02  -5.3746278075286730e-02  -4.9482491608031143e-02  -4.5192235350533815e-02  -4.0876570855376403e-02  -3.6536309950478740e-02  -3.2172042050568818e-02  -2.7784212295984732e-02  -2.3373233455362366e-02  -1.8939621819245481e-02  -1.4484145828042239e-02  -1.0007971588102477e-02  -5.5127855418592017e-03  -1.0008742057195353e-03  3.5248542582384966e-03  8.0609120743944263e-03  1.2603330675316750e-02  1.7147798653354685e-02  2.1689815109135785e-02  2.6224834796218451e-02  3.0748386513258712e-02  3.5256154373102505e-02  3.9744018659045359e-02  4.4208062490171833e-02  4.8644552069926988e-02  5.3049925453697543e-02  5.7420825386102492e-02  6.1754337111143608e-02  6.6048613324746056e-02  7.0304161697137463e-02  7.4526717803798090e-02  7.8727659279614906e-02  8.2936145203692441e-02  8.7166064082317057e-02  9.1547671658020593e-02  9.5729481066460398e-02  1.0018404332597940e-01  1.0530617863192482e-01  -1.0407295782084583e-01  -9.8829961963885354e-02  -9.4597059786492424e-02  -9.0418340046170192e-02  -8.6181090515426689e-02  -8.2037757948822843e-02  -7.7940921489672882e-02  -7.3855647083581638e-02  -6.9760313717785377e-02  -6.5642726126270881e-02  -6.1497238574467657e-02  -5.7322357150214456e-02  -5.3118610082726517e-02  -4.8887251156107328e-02  -4.4629606626233477e-02  -4.0346811986968829e-02  -3.6039744332284289e-02  -3.1709047471512292e-02  -2.7355207580442936e-02  -2.2978665062982361e-02  -1.8579955551113896e-02  -1.4159869757673384e-02  -9.7196145795913590e-03  -5.2609510479139157e-03  -7.8628258914081579e-04  3.7013273058167182e-03  8.1982153538122972e-03  1.2700246433013556e-02  1.7202983825692419e-02  2.1701869263111153e-02  2.6192382914129744e-02  3.0670162899092815e-02  3.5131076277508083e-02  3.9571242798749781e-02  4.3987023355943483e-02  4.8374983967910297e-02  5.2731878710072053e-02  5.7054677295637478e-02  6.1340845594025695e-02  6.5588946753264543e-02  6.9800193660258733e-02  7.3980861471631951e-02  7.8144355353574987e-02  8.2318889798349754e-02  8.6526891792477773e-02  9.0880671633809890e-02  9.5057944435606098e-02  9.9475276768720644e-02  1.0455227385474830e-01  -1.0334467432247836e-01  -9.8250314385508020e-02  -9.3933835248943179e-02  -8.9784430077251551e-02  -8.5522307884410176e-02  -8.1381261144167646e-02  -7.7293755746026954e-02  -7.3222996071623969e-02  -6.9146152433294819e-02  -6.5049385128755369e-02  -6.0926111732639399e-02  -5.6774368371475134e-02  -5.2594474697213150e-02  -4.8387607711723485e-02  -4.4155072403914447e-02  -3.9897999838776545e-02  -3.5617255266512382e-02  -3.1313446124844921e-02  -2.6986987024311390e-02  -2.2638210666392027e-02  -1.8267521318837486e-02  -1.3875581929076399e-02  -9.4635136885490908e-03  -5.0330739133291986e-03  -5.8677153996947358e-04  3.8721138811369546e-03  8.3396223925504484e-03  1.2811296281484990e-02  1.7282413805750144e-02  2.1748223488580409e-02  2.6204136686346524e-02  3.0645854705147916e-02  3.5069427023290627e-02  3.9471250691452672e-02  4.3848031945449832e-02  4.8196728653068892e-02  5.2514521819782299e-02  5.6798848875938383e-02  6.1047704247716751e-02  6.5260294549726872e-02  6.9438611612072113e-02  7.3589941839262429e-02  7.7728571024829024e-02  8.1883768012005934e-02  8.6076664231996489e-02  9.0419400060208918e-02  9.4582631379436191e-02  9.8970672927662873e-02  1.0405528712760441e-01  -1.0270372808409409e-01  -9.7639164449846619e-02  -9.3308352835836647e-02  -8.9184786740267363e-02  -8.4908694555981726e-02  -8.0773571765807198e-02  -7.6691433878801563e-02  -7.2630780479029128e-02  -6.8567940149426992e-02  -6.4487750316782569e-02  -6.0382977026970340e-02  -5.6251174526613205e-02  -5.2092398021595238e-02  -4.7907681392943262e-02  -4.3698254730031666e-02  -3.9465199300828535e-02  -3.5209319632722821e-02  -3.0931122017039226e-02  -2.6630859244790420e-02  -2.2308636924179198e-02  -1.7964585046752732e-02  -1.3599089968553782e-02  -9.2130613209098385e-03  -4.8081834839190573e-03  -3.8708443353082246e-04  4.0466385069097121e-03  8.4885598783846165e-03  1.2933704389096468e-02  1.7376889160540452e-02  2.1813045702162349e-02  2.6237459085965815e-02  3.0645898785881226e-02  3.5034649354294067e-02  3.9400467489070279e-02  4.3740501095903286e-02  4.8052198800497603e-02  5.2333263252453452e-02  5.6581682093648430e-02  6.0796041987839090e-02  6.4976198523277656e-02  6.9124863983906021e-02  7.3250024086338711e-02  7.7366562926992455e-02  8.1503614519307044e-02  8.5681621644470532e-02  9.0009498302407676e-02  9.4157187933111772e-02  9.8520521208581999e-02  1.0359088665984217e-01  -1.0212035285578706e-01  -9.7067485223990321e-02  -9.2745231520114005e-02  -8.8633221437032783e-02  -8.4353503273649016e-02  -8.0224138606523152e-02  -7.6145358440594460e-02  -7.2092408983728873e-02  -6.8039994820041180e-02  -6.3972487351640170e-02  -5.9882356482004080e-02  -5.5766781205496378e-02  -5.1625610911254276e-02  -4.7459749264762381e-02  -4.3270358161732116e-02  -3.9058469526867978e-02  -3.4824816009408059e-02  -3.0569768619911113e-02  -2.6293348748435731e-02  -2.1995321200049739e-02  -1.7675385865867400e-02  -1.3333474921717213e-02  -8.9701282857887130e-03  -4.5868726676458992e-03  -1.8648873379198901e-04  4.2269466413919791e-03  8.6482903419605028e-03  1.3071777926613036e-02  1.7491546125574853e-02  2.1902086398384354e-02  2.6298537582851087e-02  3.0676799254712710e-02  3.5033501715591650e-02  3.9365889073201259e-02  4.3671672403958389e-02  4.7948892120054903e-02  5.2195845124041358e-02  5.6411107468899407e-02  6.0593851772878057e-02  6.4744517982694663e-02  6.8866387573688570e-02  7.2967919114546545e-02  7.7064255482350921e-02  8.1184269167661874e-02  8.5347597601965530e-02  8.9661093924821758e-02  9.3794703695234502e-02  9.8136132237465964e-02  1.0319460308310106e-01  -1.0159220365764783e-01  -9.6545909067006094e-02  -9.2232981993210422e-02  -8.8126930018029848e-02  -8.3848685660264516e-02  -7.9723308341164340e-02  -7.5647589030509263e-02  -7.1600843792988159e-02  -6.7556276285577685e-02  -6.3498537859403223e-02  -5.9419905814124443e-02  -5.5317321938746083e-02  -5.1190526117496568e-02  -4.7040350949884034e-02  -4.2867942798452019e-02  -3.8674327010522327e-02  -3.4460194827560686e-02  -3.0225785814593439e-02  -2.5970848165624255e-02  -2.1694698777942695e-02  -1.7396427180544356e-02  -1.3075278746099031e-02  -8.7311987811062291e-03  -4.3654315404919363e-03  1.9029953631171080e-05  4.4173647571741836e-03  8.8233146507911177e-03  1.3229927224487681e-02  1.7630378956281077e-02  2.2018615862492291e-02  2.6389684963087010e-02  3.0739774433696136e-02  3.5066060134428027e-02  3.9366465982555054e-02  4.3639422562237407e-02  4.7883670364031253e-02  5.2098158595548831e-02  5.6282060729270465e-02  6.0435095493538309e-02  6.4558197208383308e-02  6.8655079829845367e-02  7.2734508314679383e-02  7.6811759321984793e-02  8.0915420759768875e-02  8.5064649258734901e-02  8.9364751395059408e-02  9.3486086942349819e-02  9.7810035016367577e-02  1.0285887686011400e-01  -1.0111840685189070e-01  -9.6076307541159908e-02  -9.1770099490740734e-02  -8.7667879943353497e-02  -8.3391726788317286e-02  -7.9268948650434920e-02  -7.5196061984295084e-02  -7.1153960530475735e-02  -6.7115165628452975e-02  -6.3064749758110314e-02  -5.8994793525054837e-02  -5.4902150672015988e-02  -5.0786536253491069e-02  -4.6648789371952597e-02  -4.2490118075892355e-02  -3.8311617297372862e-02  -3.4114010709784877e-02  -2.9897458134900454e-02  -2.5661436068240204e-02  -2.1404723413986561e-02  -1.7125587732204524e-02  -1.2822265398473025e-02  -8.4937583830573659e-03  -4.1408173832253705e-03  2.3325790809197814e-04  4.6224556514671720e-03  9.0187485951540355e-03  1.3413393168499195e-02  1.7798259525669706e-02  2.2166714355037517e-02  2.6513917038347372e-02  3.0836663538008159e-02  3.5133002682695195e-02  3.9401809222426337e-02  4.3642422607847765e-02  4.7854391142996180e-02  5.2037354021767214e-02  5.6191063562344615e-02  6.0315721606341979e-02  6.4412659724893045e-02  6.8485906571512725e-02  7.2544421195990874e-02  7.6603551013539467e-02  8.0691654646578181e-02  8.4827619743790106e-02  8.9115626730894668e-02  9.3226546849010009e-02  9.7536552512370644e-02  1.0257800681111610e-01  -1.0069731893765080e-01  -9.5657827486512165e-02  -9.1355794849709376e-02  -8.7256030097819112e-02  -8.2981334359155889e-02  -7.8860223506923163e-02  -7.4789447407403870e-02  -7.0750463403914013e-02  -6.6715654841462232e-02  -6.2670319593694845e-02  -5.8606394375023498e-02  -5.4520743381200776e-02  -5.0413106257456222e-02  -4.6284400238403862e-02  -4.2135975039167023e-02  -3.7969093867996268e-02  -3.3784629827248516e-02  -2.9582776610055331e-02  -2.5362813661617630e-02  -2.1122937538611958e-02  -1.6860360681682413e-02  -1.2571855573792716e-02  -8.2549078302610879e-03  -3.9093815168348076e-03  4.6097877447733818e-04  4.8481819457557185e-03  9.2413084567844056e-03  1.3628900072105392e-02  1.8001148698848887e-02  2.2351016805908782e-02  2.6674273627506705e-02  3.0968898076017611e-02  3.5234305198707537e-02  3.9470667444837820e-02  4.3678432586054229e-02  4.7858036808400277e-02  5.2009804215746101e-02  5.6134005342044289e-02  6.0231230970105694e-02  6.4303098921182369e-02  6.8353839854504994e-02  7.2392513481363024e-02  7.6434490248889583e-02  8.0507931549758313e-02  8.4631579173355315e-02  8.8908735425910435e-02  9.3010784047556944e-02  9.7309622773597240e-02  1.0234533613445140e-01  -1.0032732426757190e-01  -9.5289380318137037e-02  -9.0989660283315454e-02  -8.6891337318160719e-02  -8.2617301894455999e-02  -7.8497022344514472e-02  -7.4427404884008425e-02  -7.0390169894311100e-02  -6.6357691672894875e-02  -6.2315323287046330e-02  -5.8254924929920904e-02  -5.4173388365932947e-02  -5.0070494179849698e-02  -4.5947281328068253e-02  -4.1805302446740036e-02  -3.7646092141784104e-02  -3.3470823545592651e-02  -2.9279913946742363e-02  -2.5072638826096942e-02  -2.0846674022622209e-02  -1.6597980233179072e-02  -1.2321232538295092e-02  -8.0114244718420061e-03  -3.6667468013470870e-03  7.0843074259799180e-04  5.1026625448598378e-03  9.5001150814876152e-03  1.3885218915706510e-02  1.8246275985661649e-02  2.2576541477024637e-02  2.6873427978025170e-02  3.1137037913667735e-02  3.5368815924401685e-02  3.9570605853407680e-02  4.3744111074876003e-02  4.7890653719024089e-02  5.2011155588978050e-02  5.6106277323312657e-02  6.0176857281998015e-02  6.4224661799856600e-02  6.8254000907027282e-02  7.2273939808072618e-02  7.6299815765605197e-02  8.0359594358865222e-02  8.4471920746508861e-02  8.8739363494102400e-02  9.2833788391336741e-02  9.7123480563445830e-02  1.0215462508372393e-01  -1.0000727032456044e-01  -9.4970181557729419e-02  -9.0671526656335807e-02  -8.6573895282190741e-02  -8.2299824438245822e-02  -7.8179635345515128e-02  -7.4110263498310319e-02  -7.0073576012695676e-02  -6.6041908294008952e-02  -6.2000584153111930e-02  -5.7941398501759223e-02  -5.3861230187263624e-02  -4.9759880659629843e-02  -4.5638502015389652e-02  -4.1498864187521085e-02  -3.7342843987986200e-02  -3.3172065457032239e-02  -2.8987432751813282e-02  -2.4788573185894426e-02  -2.0572922135771599e-02  -1.6335198485307754e-02  -1.2067145710238588e-02  -7.7595988594738111e-03  -3.4073871367222191e-03  9.8432087539829260e-04  5.3976383161569710e-03  9.8080131318261932e-03  1.4193805668325213e-02  1.8541983511661312e-02  2.2847959304527394e-02  2.7112695225780203e-02  3.1339769084288073e-02  3.5533384838102512e-02  3.9697318878826424e-02  4.3834506903747600e-02  4.7946991354488842e-02  5.2036073679692804e-02  5.6102583520294722e-02  6.0147406088437730e-02  6.4172285372853244e-02  6.8181472600377574e-02  7.2183936154636599e-02  7.6194913484740834e-02  8.0242154363204810e-02  8.4344213084233802e-02  8.8603014896482743e-02  9.2690861865434154e-02  9.6972942256231542e-02  1.0200035007844602e-01  -9.9736529124300768e-02  -9.4699855518760520e-02  -9.0401469504779217e-02  -8.6304001349445936e-02  -8.2029380199712412e-02  -7.7908697593348564e-02  -7.3838820297409957e-02  -6.9801692598311454e-02  -6.5769558302092773e-02  -6.1727657043728998e-02  -5.7667677086158296e-02  -5.3586413080938859e-02  -4.9483618942485430e-02  -4.5360479749500873e-02  -4.1218913443444145e-02  -3.7061115153928889e-02  -3.2889235600181747e-02  -2.8704939238246525e-02  -2.4508711511187137e-02  -2.0298420138574049e-02  -1.6068115784216422e-02  -1.1805708030054525e-02  -7.4951798963396286e-03  -3.1240509904427844e-03  1.3016513485625671e-03  5.7509769046225007e-03  1.0183344611691970e-02  1.4568985626269411e-02  1.8896544069900240e-02  2.3167751615809702e-02  2.7390147878321936e-02  3.1572319271329662e-02  3.5721687723592292e-02  3.9843837974718896e-02  4.3942572026949005e-02  4.8020233227170681e-02  5.2078116466983917e-02  5.6116897768135075e-02  6.0137253518715551e-02  6.4140709589020767e-02  6.8131312570685887e-02  7.2117831663564086e-02  7.6115336329613550e-02  8.0151334459449941e-02  8.4244275308326982e-02  8.8495511834681309e-02  9.2577724859479446e-02  9.6853465117921408e-02  1.0187779121136278e-01  -9.9514877481650138e-02  -9.4478353572692478e-02  -9.0179766018744570e-02  -8.6082126456725236e-02  -8.1806644399409364e-02  -7.7685087912183204e-02  -7.3614192865727984e-02  -6.9575931834391411e-02  -6.5542413576068118e-02  -6.1498745540255050e-02  -5.7436448331310216e-02  -5.3352144842043377e-02  -4.9245427050210150e-02  -4.5117358186830200e-02  -4.0969819057100128e-02  -3.6805128846142100e-02  -3.2625835121990729e-02  -2.8434445198156546e-02  -2.4232769368159275e-02  -2.0020292253819676e-02  -1.5792066030981353e-02  -1.1532005962408449e-02  -7.2134697134147979e-03  -2.8066176921586528e-03  1.6813009033440132e-03  6.1906616961687356e-03  1.0651428584671342e-02  1.5026109889523347e-02  1.9314460417808290e-02  2.3532303737227499e-02  2.7697416421413171e-02  3.1824209824115414e-02  3.5922823662821124e-02  3.9999756528371601e-02  4.4058802724905428e-02  4.8101890379052853e-02  5.2129766461063529e-02  5.6142561384592081e-02  6.0140465896641994e-02  6.4124595713393143e-02  6.8098661382535522e-02  7.2071147516492962e-02  7.6056900452752513e-02  8.0083169432581758e-02  8.4168282023247262e-02  8.8413091785249406e-02  9.2490591703882075e-02  9.6761148874465450e-02  1.0178296652717220e-01  -9.9342351365119361e-02  -9.4305836957508410e-02  -9.0006821341985066e-02  -8.5908846514518855e-02  -8.1632401291528170e-02  -7.7509821537433132e-02  -7.3437683735071646e-02  -6.9397956698557223e-02  -6.5362590885202063e-02  -6.1316529483921897e-02  -5.7251075984344930e-02  -5.3162601565914104e-02  -4.9050409570386845e-02  -4.4915245429554551e-02  -4.0758666280867197e-02  -3.6582719280563628e-02  -3.2389869919067518e-02  -2.8183006229711073e-02  -2.3965168136608296e-02  -1.9738684295233476e-02  -1.5502542004850309e-02  -1.1239765349413485e-02  -6.9096105463944532e-03  -2.4393351026729790e-03  2.1575562863125081e-03  6.7580998881280789e-03  1.1241795767254450e-02  1.5573510067256192e-02  1.9787597523408664e-02  2.3924899399465085e-02  2.8015121094953705e-02  3.2076694374676439e-02  3.6120108130481915e-02  4.0150829127425167e-02  4.4171268715963552e-02  4.8182029737458776e-02  5.2182728316552442e-02  5.6172582763663312e-02  6.0151070755797231e-02  6.4118758835369410e-02  6.8078937867994835e-02  7.2039762083592737e-02  7.6015828969487179e-02  8.0034135037304957e-02  8.4112879302293761e-02  8.8352502780685668e-02  9.2426237311714954e-02  9.6692740582554976e-02  1.0171259547343196e-01  -9.9219118809819998e-02  -9.4182565366839208e-02  -8.9883081587785851e-02  -8.5784753587455201e-02  -8.1507437804094876e-02  -7.7383916199165237e-02  -7.3310608881105063e-02  -6.9269467523262532e-02  -6.5232290549634045e-02  -6.1183857376997164e-02  -5.7115245919876489e-02  -5.3022544536779223e-02  -4.8904695170664689e-02  -4.4761980499158617e-02  -4.0595367003890888e-02  -3.6406162942238043e-02  -3.2195975748984466e-02  -2.7966856237634015e-02  -2.3721565602467284e-02  -1.9464300233252092e-02  -1.5199683976974868e-02  -1.0920207649261495e-02  -6.5767474473918562e-03  -1.9969164319137574e-03  2.7744357811320987e-03  7.4953558014470706e-03  1.1968844539431698e-02  1.6190530199539598e-02  2.0278466269464952e-02  2.4305905162051073e-02  2.8308236152816853e-02  3.2301175373138563e-02  3.6291018523502673e-02  4.0279559553723192e-02  4.4266388942741521e-02  4.8250029950601812e-02  5.2228585044066973e-02  5.6200175529784534e-02  6.0163485007575228e-02  6.4118503701068585e-02  6.8068102132373895e-02  7.2020119071489766e-02  7.5988920142636307e-02  8.0001286675929817e-02  8.4075299548416915e-02  8.8311093498294566e-02  9.2382061746165506e-02  9.6645656548488765e-02  1.0166409461894405e-01  -9.9145378229672121e-02  -9.4108801409140894e-02  -8.9808945777654484e-02  -8.5710360136034697e-02  -8.1432426929471377e-02  -7.7308242666910429e-02  -7.3234101971670615e-02  -6.9191945399013591e-02  -6.5153459343341311e-02  -6.1103303009221774e-02  -5.7032382263528601e-02  -5.2936559401568356e-02  -4.8814468305971165e-02  -4.4665963153683236e-02  -4.0491399503010665e-02  -3.6291194138993191e-02  -3.2065634872816537e-02  -2.7814805802168153e-02  -2.3538757932937922e-02  -1.9238536323331210e-02  -1.4917448562140671e-02  -1.0581211977798982e-02  -6.2070544873546124e-03  -1.4748191169700862e-03  3.4960449875281641e-03  8.3626741510574917e-03  1.2775021654576198e-02  1.6782436379740653e-02  2.0697843084597187e-02  2.4605086486169280e-02  2.8525548838579246e-02  3.2461272701977510e-02  3.6409778936702039e-02  4.0367519629394881e-02  4.4330783319721727e-02  4.8295984287529965e-02  5.2259834616879525e-02  5.6219516457507848e-02  6.0173068117397428e-02  6.4120030315415827e-02  6.8062956047185375e-02  7.2009453717471292e-02  7.5973721182141504e-02  7.9982395430686359e-02  8.4053468945134158e-02  8.8286895543941452e-02  9.2356150785191771e-02  9.6618013452538495e-02  1.0163559191859169e-01  -9.9121283168057281e-02  -9.4084736402182984e-02  -8.9784690220700042e-02  -8.5686013557616417e-02  -8.1407821085483362e-02  -7.7283385393465784e-02  -7.3208926860417564e-02  -6.9166395774059794e-02  -6.5127433934799986e-02  -6.1076661251217440e-02  -5.7004922688605963e-02  -5.2908000108044133e-02  -4.8784414364596365e-02  -4.4633856969086186e-02  -4.0456441439989631e-02  -3.6252210831765400e-02  -3.2020851779885492e-02  -2.7761439982754252e-02  -2.3472308837189874e-02  -1.9151316831509141e-02  -1.4797021564926302e-02  -1.0413267384764193e-02  -6.0212464665052789e-03  -1.0902340293000342e-03  3.9122850399053982e-03  8.8479011321448246e-03  1.3371578900930908e-02  1.7117805813729414e-02  2.08932080953