<?xml version="1.0"?>
<VTKFile type="UnstructuredGrid"  version="0.1"  >
<UnstructuredGrid>
<Piece  NumberOfPoints="1617" NumberOfCells="3072">
<Points>
<DataArray  type="Float64"  NumberOfComponents="3"  format="ascii">0 0 0  0.03125 0 0  0.0625 0 0  0.09375 0 0  0.125 0 0  0.15625 0 0  0.1875 0 0  0.21875 0 0  0.25 0 0  0.28125 0 0  0.3125 0 0  0.34375 0 0  0.375 0 0  0.40625 0 0  0.4375 0 0  0.46875 0 0  0.5 0 0  0.53125 0 0  0.5625 0 0  0.59375 0 0  0.625 0 0  0.65625 0 0  0.6875 0 0  0.71875 0 0  0.75 0 0  0.78125 0 0  0.8125 0 0  0.84375 0 0  0.875 0 0  0.90625 0 0  0.9375 0 0  0.96875 0 0  1 0 0  1.03125 0 0  1.0625 0 0  1.09375 0 0  1.125 0 0  1.15625 0 0  1.1875 0 0  1.21875 0 0  1.25 0 0  1.28125 0 0  1.3125 0 0  1.34375 0 0  1.375 0 0  1.40625 0 0  1.4375 0 0  1.46875 0 0  1.5 0 0  0 0.03125 0  0.03125 0.03125 0  0.0625 0.03125 0  0.09375 0.03125 0  0.125 0.03125 0  0.15625 0.03125 0  0.1875 0.03125 0  0.21875 0.03125 0  0.25 0.03125 0  0.28125 0.03125 0  0.3125 0.03125 0  0.34375 0.03125 0  0.375 0.03125 0  0.40625 0.03125 0  0.4375 0.03125 0  0.46875 0.03125 0  0.5 0.03125 0  0.53125 0.03125 0  0.5625 0.03125 0  0.59375 0.03125 0  0.625 0.03125 0  0.65625 0.03125 0  0.6875 0.03125 0  0.71875 0.03125 0  0.75 0.03125 0  0.78125 0.03125 0  0.8125 0.03125 0  0.84375 0.03125 0  0.875 0.03125 0  0.90625 0.03125 0  0.9375 0.03125 0  0.96875 0.03125 0  1 0.03125 0  1.03125 0.03125 0  1.0625 0.03125 0  1.09375 0.03125 0  1.125 0.03125 0  1.15625 0.03125 0  1.1875 0.03125 0  1.21875 0.03125 0  1.25 0.03125 0  1.28125 0.03125 0  1.3125 0.03125 0  1.34375 0.03125 0  1.375 0.03125 0  1.40625 0.03125 0  1.4375 0.03125 0  1.46875 0.03125 0  1.5 0.03125 0  0 0.0625 0  0.03125 0.0625 0  0.0625 0.0625 0  0.09375 0.0625 0  0.125 0.0625 0  0.15625 0.0625 0  0.1875 0.0625 0  0.21875 0.0625 0  0.25 0.0625 0  0.28125 0.0625 0  0.3125 0.0625 0  0.34375 0.0625 0  0.375 0.0625 0  0.40625 0.0625 0  0.4375 0.0625 0  0.46875 0.0625 0  0.5 0.0625 0  0.53125 0.0625 0  0.5625 0.0625 0  0.59375 0.0625 0  0.625 0.0625 0  0.65625 0.0625 0  0.6875 0.0625 0  0.71875 0.0625 0  0.75 0.0625 0  0.78125 0.0625 0  0.8125 0.0625 0  0.84375 0.0625 0  0.875 0.0625 0  0.90625 0.0625 0  0.9375 0.0625 0  0.96875 0.0625 0  1 0.0625 0  1.03125 0.0625 0  1.0625 0.0625 0  1.09375 0.0625 0  1.125 0.0625 0  1.15625 0.0625 0  1.1875 0.0625 0  1.21875 0.0625 0  1.25 0.0625 0  1.28125 0.0625 0  1.3125 0.0625 0  1.34375 0.0625 0  1.375 0.0625 0  1.40625 0.0625 0  1.4375 0.0625 0  1.46875 0.0625 0  1.5 0.0625 0  0 0.09375 0  0.03125 0.09375 0  0.0625 0.09375 0  0.09375 0.09375 0  0.125 0.09375 0  0.15625 0.09375 0  0.1875 0.09375 0  0.21875 0.09375 0  0.25 0.09375 0  0.28125 0.09375 0  0.3125 0.09375 0  0.34375 0.09375 0  0.375 0.09375 0  0.40625 0.09375 0  0.4375 0.09375 0  0.46875 0.09375 0  0.5 0.09375 0  0.53125 0.09375 0  0.5625 0.09375 0  0.59375 0.09375 0  0.625 0.09375 0  0.65625 0.09375 0  0.6875 0.09375 0  0.71875 0.09375 0  0.75 0.09375 0  0.78125 0.09375 0  0.8125 0.09375 0  0.84375 0.09375 0  0.875 0.09375 0  0.90625 0.09375 0  0.9375 0.09375 0  0.96875 0.09375 0  1 0.09375 0  1.03125 0.09375 0  1.0625 0.09375 0  1.09375 0.09375 0  1.125 0.09375 0  1.15625 0.09375 0  1.1875 0.09375 0  1.21875 0.09375 0  1.25 0.09375 0  1.28125 0.09375 0  1.3125 0.09375 0  1.34375 0.09375 0  1.375 0.09375 0  1.40625 0.09375 0  1.4375 0.09375 0  1.46875 0.09375 0  1.5 0.09375 0  0 0.125 0  0.03125 0.125 0  0.0625 0.125 0  0.09375 0.125 0  0.125 0.125 0  0.15625 0.125 0  0.1875 0.125 0  0.21875 0.125 0  0.25 0.125 0  0.28125 0.125 0  0.3125 0.125 0  0.34375 0.125 0  0.375 0.125 0  0.40625 0.125 0  0.4375 0.125 0  0.46875 0.125 0  0.5 0.125 0  0.53125 0.125 0  0.5625 0.125 0  0.59375 0.125 0  0.625 0.125 0  0.65625 0.125 0  0.6875 0.125 0  0.71875 0.125 0  0.75 0.125 0  0.78125 0.125 0  0.8125 0.125 0  0.84375 0.125 0  0.875 0.125 0  0.90625 0.125 0  0.9375 0.125 0  0.96875 0.125 0  1 0.125 0  1.03125 0.125 0  1.0625 0.125 0  1.09375 0.125 0  1.125 0.125 0  1.15625 0.125 0  1.1875 0.125 0  1.21875 0.125 0  1.25 0.125 0  1.28125 0.125 0  1.3125 0.125 0  1.34375 0.125 0  1.375 0.125 0  1.40625 0.125 0  1.4375 0.125 0  1.46875 0.125 0  1.5 0.125 0  0 0.15625 0  0.03125 0.15625 0  0.0625 0.15625 0  0.09375 0.15625 0  0.125 0.15625 0  0.15625 0.15625 0  0.1875 0.15625 0  0.21875 0.15625 0  0.25 0.15625 0  0.28125 0.15625 0  0.3125 0.15625 0  0.34375 0.15625 0  0.375 0.15625 0  0.40625 0.15625 0  0.4375 0.15625 0  0.46875 0.15625 0  0.5 0.15625 0  0.53125 0.15625 0  0.5625 0.15625 0  0.59375 0.15625 0  0.625 0.15625 0  0.65625 0.15625 0  0.6875 0.15625 0  0.71875 0.15625 0  0.75 0.15625 0  0.78125 0.15625 0  0.8125 0.15625 0  0.84375 0.15625 0  0.875 0.15625 0  0.90625 0.15625 0  0.9375 0.15625 0  0.96875 0.15625 0  1 0.15625 0  1.03125 0.15625 0  1.0625 0.15625 0  1.09375 0.15625 0  1.125 0.15625 0  1.15625 0.15625 0  1.1875 0.15625 0  1.21875 0.15625 0  1.25 0.15625 0  1.28125 0.15625 0  1.3125 0.15625 0  1.34375 0.15625 0  1.375 0.15625 0  1.40625 0.15625 0  1.4375 0.15625 0  1.46875 0.15625 0  1.5 0.15625 0  0 0.1875 0  0.03125 0.1875 0  0.0625 0.1875 0  0.09375 0.1875 0  0.125 0.1875 0  0.15625 0.1875 0  0.1875 0.1875 0  0.21875 0.1875 0  0.25 0.1875 0  0.28125 0.1875 0  0.3125 0.1875 0  0.34375 0.1875 0  0.375 0.1875 0  0.40625 0.1875 0  0.4375 0.1875 0  0.46875 0.1875 0  0.5 0.1875 0  0.53125 0.1875 0  0.5625 0.1875 0  0.59375 0.1875 0  0.625 0.1875 0  0.65625 0.1875 0  0.6875 0.1875 0  0.71875 0.1875 0  0.75 0.1875 0  0.78125 0.1875 0  0.8125 0.1875 0  0.84375 0.1875 0  0.875 0.1875 0  0.90625 0.1875 0  0.9375 0.1875 0  0.96875 0.1875 0  1 0.1875 0  1.03125 0.1875 0  1.0625 0.1875 0  1.09375 0.1875 0  1.125 0.1875 0  1.15625 0.1875 0  1.1875 0.1875 0  1.21875 0.1875 0  1.25 0.1875 0  1.28125 0.1875 0  1.3125 0.1875 0  1.34375 0.1875 0  1.375 0.1875 0  1.40625 0.1875 0  1.4375 0.1875 0  1.46875 0.1875 0  1.5 0.1875 0  0 0.21875 0  0.03125 0.21875 0  0.0625 0.21875 0  0.09375 0.21875 0  0.125 0.21875 0  0.15625 0.21875 0  0.1875 0.21875 0  0.21875 0.21875 0  0.25 0.21875 0  0.28125 0.21875 0  0.3125 0.21875 0  0.34375 0.21875 0  0.375 0.21875 0  0.40625 0.21875 0  0.4375 0.21875 0  0.46875 0.21875 0  0.5 0.21875 0  0.53125 0.21875 0  0.5625 0.21875 0  0.59375 0.21875 0  0.625 0.21875 0  0.65625 0.21875 0  0.6875 0.21875 0  0.71875 0.21875 0  0.75 0.21875 0  0.78125 0.21875 0  0.8125 0.21875 0  0.84375 0.21875 0  0.875 0.21875 0  0.90625 0.21875 0  0.9375 0.21875 0  0.96875 0.21875 0  1 0.21875 0  1.03125 0.21875 0  1.0625 0.21875 0  1.09375 0.21875 0  1.125 0.21875 0  1.15625 0.21875 0  1.1875 0.21875 0  1.21875 0.21875 0  1.25 0.21875 0  1.28125 0.21875 0  1.3125 0.21875 0  1.34375 0.21875 0  1.375 0.21875 0  1.40625 0.21875 0  1.4375 0.21875 0  1.46875 0.21875 0  1.5 0.21875 0  0 0.25 0  0.03125 0.25 0  0.0625 0.25 0  0.09375 0.25 0  0.125 0.25 0  0.15625 0.25 0  0.1875 0.25 0  0.21875 0.25 0  0.25 0.25 0  0.28125 0.25 0  0.3125 0.25 0  0.34375 0.25 0  0.375 0.25 0  0.40625 0.25 0  0.4375 0.25 0  0.46875 0.25 0  0.5 0.25 0  0.53125 0.25 0  0.5625 0.25 0  0.59375 0.25 0  0.625 0.25 0  0.65625 0.25 0  0.6875 0.25 0  0.71875 0.25 0  0.75 0.25 0  0.78125 0.25 0  0.8125 0.25 0  0.84375 0.25 0  0.875 0.25 0  0.90625 0.25 0  0.9375 0.25 0  0.96875 0.25 0  1 0.25 0  1.03125 0.25 0  1.0625 0.25 0  1.09375 0.25 0  1.125 0.25 0  1.15625 0.25 0  1.1875 0.25 0  1.21875 0.25 0  1.25 0.25 0  1.28125 0.25 0  1.3125 0.25 0  1.34375 0.25 0  1.375 0.25 0  1.40625 0.25 0  1.4375 0.25 0  1.46875 0.25 0  1.5 0.25 0  0 0.28125 0  0.03125 0.28125 0  0.0625 0.28125 0  0.09375 0.28125 0  0.125 0.28125 0  0.15625 0.28125 0  0.1875 0.28125 0  0.21875 0.28125 0  0.25 0.28125 0  0.28125 0.28125 0  0.3125 0.28125 0  0.34375 0.28125 0  0.375 0.28125 0  0.40625 0.28125 0  0.4375 0.28125 0  0.46875 0.28125 0  0.5 0.28125 0  0.53125 0.28125 0  0.5625 0.28125 0  0.59375 0.28125 0  0.625 0.28125 0  0.65625 0.28125 0  0.6875 0.28125 0  0.71875 0.28125 0  0.75 0.28125 0  0.78125 0.28125 0  0.8125 0.28125 0  0.84375 0.28125 0  0.875 0.28125 0  0.90625 0.28125 0  0.9375 0.28125 0  0.96875 0.28125 0  1 0.28125 0  1.03125 0.28125 0  1.0625 0.28125 0  1.09375 0.28125 0  1.125 0.28125 0  1.15625 0.28125 0  1.1875 0.28125 0  1.21875 0.28125 0  1.25 0.28125 0  1.28125 0.28125 0  1.3125 0.28125 0  1.34375 0.28125 0  1.375 0.28125 0  1.40625 0.28125 0  1.4375 0.28125 0  1.46875 0.28125 0  1.5 0.28125 0  0 0.3125 0  0.03125 0.3125 0  0.0625 0.3125 0  0.09375 0.3125 0  0.125 0.3125 0  0.15625 0.3125 0  0.1875 0.3125 0  0.21875 0.3125 0  0.25 0.3125 0  0.28125 0.3125 0  0.3125 0.3125 0  0.34375 0.3125 0  0.375 0.3125 0  0.40625 0.3125 0  0.4375 0.3125 0  0.46875 0.3125 0  0.5 0.3125 0  0.53125 0.3125 0  0.5625 0.3125 0  0.59375 0.3125 0  0.625 0.3125 0  0.65625 0.3125 0  0.6875 0.3125 0  0.71875 0.3125 0  0.75 0.3125 0  0.78125 0.3125 0  0.8125 0.3125 0  0.84375 0.3125 0  0.875 0.3125 0  0.90625 0.3125 0  0.9375 0.3125 0  0.96875 0.3125 0  1 0.3125 0  1.03125 0.3125 0  1.0625 0.3125 0  1.09375 0.3125 0  1.125 0.3125 0  1.15625 0.3125 0  1.1875 0.3125 0  1.21875 0.3125 0  1.25 0.3125 0  1.28125 0.3125 0  1.3125 0.3125 0  1.34375 0.3125 0  1.375 0.3125 0  1.40625 0.3125 0  1.4375 0.3125 0  1.46875 0.3125 0  1.5 0.3125 0  0 0.34375 0  0.03125 0.34375 0  0.0625 0.34375 0  0.09375 0.34375 0  0.125 0.34375 0  0.15625 0.34375 0  0.1875 0.34375 0  0.21875 0.34375 0  0.25 0.34375 0  0.28125 0.34375 0  0.3125 0.34375 0  0.34375 0.34375 0  0.375 0.34375 0  0.40625 0.34375 0  0.4375 0.34375 0  0.46875 0.34375 0  0.5 0.34375 0  0.53125 0.34375 0  0.5625 0.34375 0  0.59375 0.34375 0  0.625 0.34375 0  0.65625 0.34375 0  0.6875 0.34375 0  0.71875 0.34375 0  0.75 0.34375 0  0.78125 0.34375 0  0.8125 0.34375 0  0.84375 0.34375 0  0.875 0.34375 0  0.90625 0.34375 0  0.9375 0.34375 0  0.96875 0.34375 0  1 0.34375 0  1.03125 0.34375 0  1.0625 0.34375 0  1.09375 0.34375 0  1.125 0.34375 0  1.15625 0.34375 0  1.1875 0.34375 0  1.21875 0.34375 0  1.25 0.34375 0  1.28125 0.34375 0  1.3125 0.34375 0  1.34375 0.34375 0  1.375 0.34375 0  1
[...]
<PointData  Scalars="f_49"> 
<DataArray  type="Float64"  Name="f_49"  format="ascii">-1.5371989038643613e-01  -1.4785425939635249e-01  -1.4154993506449298e-01  -1.3489550539408371e-01  -1.2831629775593123e-01  -1.2183943697898718e-01  -1.1544395364793529e-01  -1.0910618963977109e-01  -1.0280467035365305e-01  -9.6522839902587573e-02  -9.0249505063716012e-02  -8.3977787212928826e-02  -7.7703674674498568e-02  -7.1424737620874507e-02  -6.5139214724099032e-02  -5.8845472875011656e-02  -5.2541750477809457e-02  -4.6226088766672085e-02  -3.9896381534209380e-02  -3.3550500283447540e-02  -2.7186467340098077e-02  -2.0802653927956643e-02  -1.4397978208017413e-02  -7.9720751847567172e-03  -1.5254107200427126e-03  4.9406816629986861e-03  1.1424049967372910e-02  1.7921851899168197e-02  2.4430740531432096e-02  3.0947077061058599e-02  3.7467138801038864e-02  4.3987296549329459e-02  5.0504144645489954e-02  5.7014582296693719e-02  6.3515851639346615e-02  7.0005578751175274e-02  7.6481837579459921e-02  8.2943457346521615e-02  8.9390420826322634e-02  9.5825350940339699e-02  1.0225386744056567e-01  1.0868981245721311e-01  1.1514809064961551e-01  1.2166920077196250e-01  1.2824463648706244e-01  1.3508474920480776e-01  1.4202025705375312e-01  1.4838175047778893e-01  1.5369964709317160e-01  -1.5465876180643742e-01  -1.4857615998154031e-01  -1.4219793359073685e-01  -1.3540598345142604e-01  -1.2873054733025027e-01  -1.2220146843694402e-01  -1.1576566317190148e-01  -1.0939290985345317e-01  -1.0305940864365018e-01  -9.6746966146646310e-02  -9.0443396430540335e-02  -8.4141286503048140e-02  -7.7836398537061313e-02  -7.1526260293200333e-02  -6.5209166813254088e-02  -5.8883591626278341e-02  -5.2547906662579386e-02  -4.6200303481083026e-02  -3.9838838365775106e-02  -3.3461554571276086e-02  -2.7066652964374858e-02  -2.0652687609316218e-02  -1.4218760667487710e-02  -7.7646874134049805e-03  -1.2911023987646265e-03  5.2005150466297558e-03  1.1707903745091924e-02  1.8228162362883011e-02  2.4757944857971167e-02  3.1293676349413650e-02  3.7831756484929008e-02  4.4368725503912722e-02  5.0901379578610122e-02  5.7426837303273803e-02  6.3942569416036640e-02  7.0446437289959821e-02  7.6936781187316242e-02  8.3412742634621131e-02  8.9874785524051592e-02  9.6326105550652352e-02  1.0277353983125191e-01  1.0923170942605422e-01  1.1571919100399573e-01  1.2227364665494271e-01  1.2890684438721126e-01  1.3576282645430021e-01  1.4273562678441765e-01  1.4926585332423015e-01  1.5516039529592884e-01  -1.5455535061175044e-01  -1.4859601712685394e-01  -1.4215657725274056e-01  -1.3527909736147051e-01  -1.2853091244394807e-01  -1.2197793795051846e-01  -1.1552597479192248e-01  -1.0914322766437107e-01  -1.0280390200993728e-01  -9.6487951764294491e-02  -9.0182015789782188e-02  -8.3878040989472949e-02  -7.7571506375700691e-02  -7.1259862317710559e-02  -6.4941430203588349e-02  -5.8614750923942666e-02  -5.2278269776423851e-02  -4.5930238732209763e-02  -3.9568752379591947e-02  -3.3191869391769747e-02  -2.6797791572773091e-02  -2.0385077130870323e-02  -1.3952859619127031e-02  -7.5010365735214100e-03  -1.0303896622457244e-03  5.4573935481909289e-03  1.1959806715373725e-02  1.8473706233123107e-02  2.4995551307489372e-02  3.1521657087176067e-02  3.8048419309178766e-02  4.4572483218069600e-02  5.1090846698341116e-02  5.7600906476013035e-02  6.4100467589910518e-02  7.0587769886177307e-02  7.7061579202153979e-02  8.3521535823621929e-02  8.9968722187115574e-02  9.6407151920252177e-02  1.0284472868122464e-01  1.0929749714013409e-01  1.1578551062106575e-01  1.2234808755777912e-01  1.2899639534540200e-01  1.3587635341724941e-01  1.4284595929405253e-01  1.4939065645675406e-01  1.5523712132544962e-01  -1.5452445190162789e-01  -1.4865996335706233e-01  -1.4219171890968560e-01  -1.3528165141003531e-01  -1.2848068100292143e-01  -1.2190034059852137e-01  -1.1542007019346855e-01  -1.0901648431412848e-01  -1.0266116704128138e-01  -9.6332493291299115e-02  -9.0015878951320669e-02  -8.3702536496146382e-02  -7.7387545637575050e-02  -7.1068176535288352e-02  -6.4742692039240129e-02  -5.8409622769375280e-02  -5.2067401928679251e-02  -4.5714234557690241e-02  -3.9348115140883301e-02  -3.2966947171392605e-02  -2.6568740306933528e-02  -2.0151863031264903e-02  -1.3715317014050042e-02  -7.2589833910814191e-03  -7.8378271262170775e-04  5.7083000039124558e-03  1.2214343080271839e-02  1.8730745062541319e-02  2.5253552362901225e-02  3.1778787054051544e-02  3.8302716243156981e-02  4.4822031581910754e-02  5.1333935638485213e-02  5.7836156444514591e-02  6.4326923620633247e-02  7.0804970621913127e-02  7.7269618815107605e-02  8.3721138579823884e-02  9.0161348968775978e-02  9.6595134935259480e-02  1.0303141210777972e-01  1.0948724432327478e-01  1.1598346941410241e-01  1.2255903432479517e-01  1.2922301120126578e-01  1.3611596916481866e-01  1.4308988441196480e-01  1.4962121491121178e-01  1.5548364384314090e-01  -1.5448990038975599e-01  -1.4865058441016238e-01  -1.4216979268142360e-01  -1.3524840512348019e-01  -1.2841669754324875e-01  -1.2181311650206025e-01  -1.1530605484741803e-01  -1.0888245229277517e-01  -1.0251041356062755e-01  -9.6168030634106602e-02  -8.9839865968680890e-02  -8.3516610691310361e-02  -7.7192997205697209e-02  -7.0866115632448143e-02  -6.4534149132765992e-02  -5.8195586189631394e-02  -5.1848801391868107e-02  -4.5491881079361550e-02  -3.9122611766560234e-02  -3.2738592879480721e-02  -2.6337459148828946e-02  -1.9917196335383188e-02  -1.3476510655354153e-02  -7.0151793538394654e-03  -5.3428679339623903e-04  5.9637396507136817e-03  1.2475327354412305e-02  1.8996147290942553e-02  2.5521590922656958e-02  3.2047217733258027e-02  3.8569087380014716e-02  4.5083943299994864e-02  5.1589261102373128e-02  5.8083205926503734e-02  6.4564552099024217e-02  7.1032642610234870e-02  7.7487449665600075e-02  8.3929930270125311e-02  9.0362627972400841e-02  9.6791181023383396e-02  1.0322522145701876e-01  1.0968234842916988e-01  1.1618339065755216e-01  1.2276642911397090e-01  1.2943799426385150e-01  1.3633487808020314e-01  1.4330433142985485e-01  1.4982151554060108e-01  1.5566847518723850e-01  -1.5443564693509598e-01  -1.4860820595474358e-01  -1.4212904497056664e-01  -1.3520244612916635e-01  -1.2835198155205804e-01  -1.2172881703016325e-01  -1.1519955685364454e-01  -1.0875768224303407e-01  -1.0236876743623657e-01  -9.6011854409596059e-02  -8.9670968874070778e-02  -8.3336583573938833e-02  -7.7003217615621622e-02  -7.0667864502652319e-02  -6.4328673085817897e-02  -5.7984114496804996e-02  -5.1632507693780326e-02  -4.5271790210945899e-02  -3.8899461424858423e-02  -3.2512675982954854e-02  -2.6108493100409188e-02  -1.9684282210089551e-02  -1.3238243884421850e-02  -6.7699396527863484e-03  -2.8066705914466092e-04  6.2264798698970494e-03  1.2746930741714220e-02  1.9275257627128669e-02  2.5805899256999491e-02  3.2333787005389893e-02  3.8854747350511497e-02  4.5365659081311287e-02  5.1864417570443772e-02  5.8349791214152319e-02  6.4821251937392382e-02  7.1278870642854764e-02  7.7723340225323664e-02  8.4156312944433376e-02  9.0580989531556452e-02  9.7003600043122293e-02  1.0343423130820292e-01  1.0989066713829532e-01  1.1639341599355256e-01  1.2297951426248907e-01  1.2965354288372719e-01  1.3654949231841873e-01  1.4351178514819582e-01  1.5001411249403795e-01  1.5584739887300700e-01  -1.5436875652885790e-01  -1.4854875975564574e-01  -1.4207292329087629e-01  -1.3514190495195624e-01  -1.2827849289449625e-01  -1.2163949438270759e-01  -1.1509260338263724e-01  -1.0863428945948864e-01  -1.0222936816410096e-01  -9.5858056079902498e-02  -8.9504040949595243e-02  -8.3157840418780452e-02  -7.6813906834035633e-02  -7.0469259033066306e-02  -6.4122101086139680e-02  -5.7770962403386944e-02  -5.1414163364108006e-02  -4.5049514732599584e-02  -3.8674189232687353e-02  -3.2284767565401620e-02  -2.5877501632221991e-02  -1.9448835924849361e-02  -1.2996161895974051e-02  -6.5186553452915453e-03  -1.7908663908039203e-05  6.5019552237798699e-03  1.3034825308764391e-02  1.9573633121376315e-02  2.6111488301472672e-02  3.2642556072197515e-02  3.9162506834463415e-02  4.5668569112969633e-02  5.2159323899654303e-02  5.8634394387211554e-02  6.5094148797294610e-02  7.1539515274694682e-02  7.7971963716248219e-02  8.4393826301113556e-02  9.0808877274042493e-02  9.7223793166550762e-02  1.0364893070418837e-01  1.1010207972729649e-01  1.1660335679324699e-01  1.2318891144682959e-01  1.2986188346287653e-01  1.3675431036893163e-01  1.4370865729085378e-01  1.5019733383874515e-01  1.5601860793365577e-01  -1.5429584331898799e-01  -1.4848084836825057e-01  -1.4200733187801146e-01  -1.3507211799692465e-01  -1.2819858115668678e-01  -1.2154657540371645e-01  -1.1498498889974076e-01  -1.0851172939159047e-01  -1.0209189996372241e-01  -9.5706508927500891e-02  -8.9339134000728487e-02  -8.2980495742925278e-02  -7.6625101012957317e-02  -7.0270113258962874e-02  -6.3913901006863436e-02  -5.7555166228965858e-02  -5.1192343027914741e-02  -4.4823202404706358e-02  -3.8444611676427778e-02  -3.2052476247255976e-02  -2.5641970116784814e-02  -1.9208181848807501e-02  -1.2747216695208627e-02  -6.2575693972270214e-03  2.5874981792644263e-04  6.7959810273597841e-03  1.3345582364452758e-02  1.9898029359560216e-02  2.6444642411489215e-02  3.2978784939014988e-02  3.9496253731851234e-02  4.5995058342671334e-02  5.2474901639767757e-02  5.8936617554728940e-02  6.5381713972508235e-02  7.1812108190047796e-02  7.8230083840557588e-02  8.4638614538045415e-02  9.1041954372245645e-02  9.7447098873500212e-02  1.0386454481616082e-01  1.1031199850908423e-01  1.1680920691315574e-01  1.2339161330805909e-01  1.3006132368389087e-01  1.3694894608728514e-01  1.4389556669657630e-01  1.5037231278371846e-01  1.5618343593389805e-01  -1.5422142913100975e-01  -1.4840959412582003e-01  -1.4193694552306690e-01  -1.3499742919021984e-01  -1.2811517310887979e-01  -1.2145196201599257e-01  -1.1487748121502732e-01  -1.0839055853345257e-01  -1.0195677086692582e-01  -9.5557574152350611e-02  -8.9176628547373071e-02  -8.2804888491230216e-02  -7.6436994750878243e-02  -7.0070343015981779e-02  -6.3703572279337317e-02  -5.7335693101351691e-02  -5.0965419509252166e-02  -4.4590651936201299e-02  -3.8208075558613157e-02  -3.1812891228247403e-02  -2.5398901920357920e-02  -1.8959228851463523e-02  -1.2487899950570038e-02  -5.9821703794766647e-03  5.5535770275204734e-04  7.1162137621813585e-03  1.3687894971326567e-02  2.0257175421070247e-02  2.6813100721389441e-02  3.3348487344604390e-02  3.9859939193554836e-02  4.6347020614232078e-02  5.2811211558548808e-02  5.9255011614040690e-02  6.5681325319353695e-02  7.2093157696663093e-02  7.8493593147497764e-02  8.4886163059908371e-02  9.1275479782358490e-02  9.7668725627068964e-02  1.0407642396421117e-01  1.1051613333258131e-01  1.1700725913220926e-01  1.2358467475897278e-01  1.3024971848385494e-01  1.3713190496173772e-01  1.4407130096614701e-01  1.5053783710135415e-01  1.5634056914713268e-01  -1.5414859804483214e-01  -1.4833861230060158e-01  -1.4186566296725250e-01  -1.3492171867574895e-01  -1.2803156126028817e-01  -1.2135833610243289e-01  -1.1477222319887306e-01  -1.0827269304889786e-01  -1.0182566301572601e-01  -9.5412867819171868e-02  -8.9018108113794472e-02  -8.2632523450532139e-02  -7.6250917854775169e-02  -6.9870954629447604e-02  -6.3491618059271310e-02  -5.7112357950717146e-02  -5.0732374296124129e-02  -4.4349962348766557e-02  -3.7961915496622527e-02  -3.1562861222709154e-02  -2.5144996708697399e-02  -1.8698627543796989e-02  -1.2214349015565036e-02  -5.6870495392129577e-03  8.7985556889982354e-04  7.4731657012927838e-03  1.4073657219587563e-02  2.0662525110917439e-02  2.7226289798799926e-02  3.3758192549917812e-02  4.0257047894804728e-02  4.6725232697038106e-02  5.3166878803181349e-02  5.9586636837762517e-02  6.5988994577547977e-02  7.2378037621716282e-02  7.8757535643435017e-02  8.5131413169019038e-02  9.1504465505721125e-02  9.7883901081964500e-02  1.0428014470042202e-01  1.1071053459508266e-01  1.1719413698957912e-01  1.2376533434007490e-01  1.3042486046987467e-01  1.3730135182054534e-01  1.4423409125470107e-01  1.5069190494566254e-01  1.5648768676478211e-01  -1.5407979431750538e-01  -1.4827077476958858e-01  -1.4179674583290419e-01  -1.3484837579160511e-01  -1.2795096183816421e-01  -1.2126866960720323e-01  -1.1467196306954869e-01  -1.0816073758556442e-01  -1.0170109808109666e-01  -9.5274949736395623e-02  -8.8866178525920422e-02  -8.2466024395908472e-02  -7.6069417393828317e-02  -6.9674249963839030e-02  -6.3279855701616539e-02  -5.6886200270121437e-02  -5.0493166315729400e-02  -4.4099793867140177e-02  -3.7703509604467667e-02  -3.1298807008391362e-02  -2.4876339077093364e-02  -1.8422506235285865e-02  -1.1922138680844171e-02  -5.3653366804168852e-03  1.2434585556649585e-03  7.8822053190916747e-03  1.4519759555539156e-02  2.1129121222178058e-02  2.7695109670925176e-02  3.4213956248425423e-02  4.0689258760088540e-02  4.7127999369798321e-02  5.3537908886642817e-02  5.9926114607761226e-02  6.6298645140362725e-02  7.2660445640270813e-02  7.9015688500682760e-02  8.5368410812750511e-02  9.1723343223548554e-02  9.8087519339881815e-02  1.0447111846432929e-01  1.1089116936297166e-01  1.1736637459141626e-01  1.2393066107398928e-01  1.3058425310346417e-01  1.3745504972459965e-01  1.4438170692515462e-01  1.5083205874592651e-01  1.5662204663258930e-01  -1.5401721603645513e-01  -1.4820860037518782e-01  -1.4173306840693936e-01  -1.3478046388953827e-01  -1.2787646931281679e-01  -1.2118603174845617e-01  -1.1457974758094161e-01  -1.0805777099928868e-01  -1.0158627118001663e-01  -9.5147214692961876e-02  -8.8724468894125261e-02  -8.2309261195493685e-02  -7.5896534698260049e-02  -6.9484280135481163e-02  -6.3072065941615615e-02  -5.6660316407788507e-02  -5.0249673791335894e-02  -4.3840267728184064e-02  -3.7430897390219174e-02  -3.1016867282400263e-02  -2.4588171024454292e-02  -1.8126204398089166e-02  -1.1606214682600981e-02  -5.0079050329404351e-03  1.6631662298859432e-03  8.3669913361533906e-03  1.5050520757218753e-02  2.1675865702840202e-02  2.8230354626358624e-02  3.4718892700687849e-02  4.1153922049032669e-02  4.7549030985838896e-02  5.3916106234656605e-02  6.0264549742988248e-02  6.6601430980285134e-02  7.2932001932600965e-02  7.9260339767685387e-02  8.5590186150409239e-02  9.1925891674628418e-02  9.8274083220606240e-02  1.0464453540889160e-01  1.1105387182185664e-01  1.1752039387599884e-01  1.2407758631507250e-01  1.3072522167289005e-01  1.3759056422738747e-01  1.4451175431229954e-01  1.5095576523194101e-01  1.5674093776155731e-01  -1.5396291329820944e-01  -1.4815436927959041e-01  -1.4167720281328103e-01  -1.3472075828989860e-01  -1.2781099004178581e-01  -1.2111343873627499e-01  -1.1449872894989299e-01  -1.0796715216233617e-01  -1.0148484503487876e-01  -9.5033731869499496e-02  -8.8597550515320603e-02  -8.2167381308956400e-02  -7.5738008080431407e-02  -6.9307296186636336e-02  -6.2874780791031606e-02  -5.6441058115634789e-02  -5.0007309557921646e-02  -4.3574830211513316e-02  -3.7144436335071467e-02  -3.0713791755820764e-02  -2.4274754217811091e-02  -1.7803735523978889e-02  -1.1260998145598824e-02  -4.6017897309536954e-03  2.1666511577867662e-03  8.9649400114064273e-03  1.5699781476062678e-02  2.2323107195358745e-02  2.8837786818525373e-02  3.5267972438493340e-02  4.1639804229079015e-02  4.7974454200901545e-02  5.4287201037302675e-02  6.0588479895325217e-02  6.6885228217136647e-02  7.3182067052067132e-02  7.9482283861343248e-02  8.5788831995072964e-02  9.2105342616754682e-02  9.8437809906340962e-02  1.0479546133292515e-01  1.1119443643631313e-01  1.1765260655601717e-01  1.2420302816741882e-01  1.3084506783440356e-01  1.3770544607327842e-01  1.4462187611330923e-01  1.5106062171285004e-01  1.5684186986741896e-01  -1.5391874419493212e-01  -1.4811010539063385e-01  -1.4163140804845464e-01  -1.3467171474212372e-01  -1.2775715855126007e-01  -1.2105371725407392e-01  -1.1443198010212070e-01  -1.0789229251971935e-01  -1.0140069433717865e-01  -9.4938991281987198e-02  -8.8490704353787281e-02  -8.2046643897719360e-02  -7.5601253548898240e-02  -6.9152004040117759e-02  -6.2698005388412137e-02  -5.6239478990850876e-02  -4.9777460303742214e-02  -4.3313755284952932e-02  -3.6850950334590481e-02  -3.0390556097263811e-02  -2.3930661370214108e-02  -1.7447211257891636e-02  -1.0880721456880611e-02  -4.1265204375856186e-03  2.7998130164529362e-03  9.7319951717211185e-03  1.6507463245791811e-02  2.3081989914958100e-02  2.9506366878189787e-02  3.5838752862025043e-02  4.2121075295038397e-02  4.8379455289185636e-02  5.4629267478210210e-02  6.0879339336345338e-02  6.7134651335835155e-02  7.3398011954007011e-02  7.9671178648617599e-02  8.5955862535841782e-02  9.2254703389376067e-02  9.8572906559768136e-02  1.0491907047439847e-01  1.1130881947455874e-01  1.1775959808935015e-01  1.2430406921250911e-01  1.3094124639796434e-01  1.3779740360145001e-01  1.4470990772565887e-01  1.5114448377646522e-01  1.5692267075889899e-01  -1.5388628510380425e-01  -1.4807750538255363e-01  -1.4159756698191225e-01  -1.3463539300143196e-01  -1.2771722451929179e-01  -1.2100934247661392e-01  -1.1438227383822708e-01  -1.0783637136558846e-01  -1.0133755573904733e-01  -9.4867485629383116e-02  -8.8409434888412727e-02  -8.1953887738314468e-02  -7.5494843598604477e-02  -6.9029185163619333e-02  -6.2555247690706237e-02  -5.6072262987385851e-02  -4.9580088327850533e-02  -4.3079401564246937e-02  -3.6572318361193970e-02  -3.0062714168466814e-02  -2.3557228317853025e-02  -1.7045473342049384e-02  -1.0457010690076448e-02  -3.5483910212362980e-03  3.6225027779038165e-03  1.0726302723029464e-02  1.7494677217866260e-02  2.3925244277012050e-02  3.0185996169862582e-02  3.6378488002041624e-02  4.2551335396887761e-02  4.8726313747466783e-02  5.4912723718233886e-02  6.1114262505706091e-02  6.7332076016588360e-02  7.3566199545728531e-02  7.9816389404368804e-02  8.6082900389095537e-02  9.2367300591909840e-02  9.8673995922046162e-02  1.0501098052619647e-01  1.1139340878069365e-01  1.1783835324873096e-01  1.2437815299081201e-01  1.3101154102197124e-01  1.3786445807588318e-01  1.4477400659575468e-01  1.5120556153378767e-01  1.5698155388487664e-01  -1.5386674053188049e-01  -1.4805785759538984e-01  -1.4157710626379599e-01  -1.3461336157508294e-01  -1.2769292320048239e-01  -1.2098225812686679e-01  -1.1435183552397095e-01  -1.0780200294033164e-01  -1.0129858494309400e-01  -9.4823123478326499e-02  -8.8358696517946242e-02  -8.1895520965060711e-02  -7.5427213363639223e-02  -6.8950111790030744e-02  -6.2461759273681153e-02  -5.5960218533783024e-02  -4.9443598900216677e-02  -4.2909969310299646e-02  -3.6357652828806833e-02  -2.9786222835368560e-02  -2.3200526337251115e-02  -1.6608309066818275e-02  -9.9773074856820982e-03  -2.8574171309215398e-03  4.5918886812252677e-03  1.1899678225422948e-02  1.8587228769840345e-02  2.4727888492890499e-02  3.0758045569793748e-02  3.6794257978064307e-02  4.2863223365386269e-02  4.8967349425668778e-02  5.5103854777566796e-02  6.1269190597278728e-02  6.7460096079563173e-02  7.3673834397407240e-02  7.9908349143213001e-02  8.6162667310042587e-02  9.2437500922891075e-02  9.8736644250568273e-02  1.0506764510406684e-01  1.1144532274556793e-01  1.1788649159340744e-01  1.2442327617895180e-01  1.3105422530938596e-01  1.3790507856435272e-01  1.4481276106840349e-01  1.5124250089235647e-01  1.5701718022395347e-01  -1.5386087043867042e-01  -1.4805197203173182e-01  -1.4157092206201521e-01  -1.3460660741285393e-01  -1.2768535355683694e-01  -1.2097370713962001e-01  -1.1434210622218634e-01  -1.0779090547478624e-01  -1.0128589220886039e-01  -9.4808571530475144e-02  -8.8341950978673478e-02  -8.1876152498215921e-02  -7.5404651651530152e-02  -6.8923580851577987e-02  -6.2430171944138808e-02  -5.5922002524555904e-02  -4.9396392215007356e-02  -4.2850067963857097e-02  -3.6278991291567649e-02  -2.9678635536189626e-02  -2.3046635562814510e-02  -1.6388651661225266e-02  -9.7338632534354017e-03  -2.3354899404123947e-03  5.1553190430139555e-03  1.2558783855713022e-02  1.9405011828790845e-02  2.5180886648932713e-02  3.1021826925