<?xml version="1.0"?>
<VTKFile type="UnstructuredGrid"  version="0.1"  >
<UnstructuredGrid>
<Piece  NumberOfPoints="1617" NumberOfCells="3072">
<Points>
<DataArray  type="Float64"  NumberOfComponents="3"  format="ascii">0 0 0  0.03125 0 0  0.0625 0 0  0.09375 0 0  0.125 0 0  0.15625 0 0  0.1875 0 0  0.21875 0 0  0.25 0 0  0.28125 0 0  0.3125 0 0  0.34375 0 0  0.375 0 0  0.40625 0 0  0.4375 0 0  0.46875 0 0  0.5 0 0  0.53125 0 0  0.5625 0 0  0.59375 0 0  0.625 0 0  0.65625 0 0  0.6875 0 0  0.71875 0 0  0.75 0 0  0.78125 0 0  0.8125 0 0  0.84375 0 0  0.875 0 0  0.90625 0 0  0.9375 0 0  0.96875 0 0  1 0 0  1.03125 0 0  1.0625 0 0  1.09375 0 0  1.125 0 0  1.15625 0 0  1.1875 0 0  1.21875 0 0  1.25 0 0  1.28125 0 0  1.3125 0 0  1.34375 0 0  1.375 0 0  1.40625 0 0  1.4375 0 0  1.46875 0 0  1.5 0 0  0 0.03125 0  0.03125 0.03125 0  0.0625 0.03125 0  0.09375 0.03125 0  0.125 0.03125 0  0.15625 0.03125 0  0.1875 0.03125 0  0.21875 0.03125 0  0.25 0.03125 0  0.28125 0.03125 0  0.3125 0.03125 0  0.34375 0.03125 0  0.375 0.03125 0  0.40625 0.03125 0  0.4375 0.03125 0  0.46875 0.03125 0  0.5 0.03125 0  0.53125 0.03125 0  0.5625 0.03125 0  0.59375 0.03125 0  0.625 0.03125 0  0.65625 0.03125 0  0.6875 0.03125 0  0.71875 0.03125 0  0.75 0.03125 0  0.78125 0.03125 0  0.8125 0.03125 0  0.84375 0.03125 0  0.875 0.03125 0  0.90625 0.03125 0  0.9375 0.03125 0  0.96875 0.03125 0  1 0.03125 0  1.03125 0.03125 0  1.0625 0.03125 0  1.09375 0.03125 0  1.125 0.03125 0  1.15625 0.03125 0  1.1875 0.03125 0  1.21875 0.03125 0  1.25 0.03125 0  1.28125 0.03125 0  1.3125 0.03125 0  1.34375 0.03125 0  1.375 0.03125 0  1.40625 0.03125 0  1.4375 0.03125 0  1.46875 0.03125 0  1.5 0.03125 0  0 0.0625 0  0.03125 0.0625 0  0.0625 0.0625 0  0.09375 0.0625 0  0.125 0.0625 0  0.15625 0.0625 0  0.1875 0.0625 0  0.21875 0.0625 0  0.25 0.0625 0  0.28125 0.0625 0  0.3125 0.0625 0  0.34375 0.0625 0  0.375 0.0625 0  0.40625 0.0625 0  0.4375 0.0625 0  0.46875 0.0625 0  0.5 0.0625 0  0.53125 0.0625 0  0.5625 0.0625 0  0.59375 0.0625 0  0.625 0.0625 0  0.65625 0.0625 0  0.6875 0.0625 0  0.71875 0.0625 0  0.75 0.0625 0  0.78125 0.0625 0  0.8125 0.0625 0  0.84375 0.0625 0  0.875 0.0625 0  0.90625 0.0625 0  0.9375 0.0625 0  0.96875 0.0625 0  1 0.0625 0  1.03125 0.0625 0  1.0625 0.0625 0  1.09375 0.0625 0  1.125 0.0625 0  1.15625 0.0625 0  1.1875 0.0625 0  1.21875 0.0625 0  1.25 0.0625 0  1.28125 0.0625 0  1.3125 0.0625 0  1.34375 0.0625 0  1.375 0.0625 0  1.40625 0.0625 0  1.4375 0.0625 0  1.46875 0.0625 0  1.5 0.0625 0  0 0.09375 0  0.03125 0.09375 0  0.0625 0.09375 0  0.09375 0.09375 0  0.125 0.09375 0  0.15625 0.09375 0  0.1875 0.09375 0  0.21875 0.09375 0  0.25 0.09375 0  0.28125 0.09375 0  0.3125 0.09375 0  0.34375 0.09375 0  0.375 0.09375 0  0.40625 0.09375 0  0.4375 0.09375 0  0.46875 0.09375 0  0.5 0.09375 0  0.53125 0.09375 0  0.5625 0.09375 0  0.59375 0.09375 0  0.625 0.09375 0  0.65625 0.09375 0  0.6875 0.09375 0  0.71875 0.09375 0  0.75 0.09375 0  0.78125 0.09375 0  0.8125 0.09375 0  0.84375 0.09375 0  0.875 0.09375 0  0.90625 0.09375 0  0.9375 0.09375 0  0.96875 0.09375 0  1 0.09375 0  1.03125 0.09375 0  1.0625 0.09375 0  1.09375 0.09375 0  1.125 0.09375 0  1.15625 0.09375 0  1.1875 0.09375 0  1.21875 0.09375 0  1.25 0.09375 0  1.28125 0.09375 0  1.3125 0.09375 0  1.34375 0.09375 0  1.375 0.09375 0  1.40625 0.09375 0  1.4375 0.09375 0  1.46875 0.09375 0  1.5 0.09375 0  0 0.125 0  0.03125 0.125 0  0.0625 0.125 0  0.09375 0.125 0  0.125 0.125 0  0.15625 0.125 0  0.1875 0.125 0  0.21875 0.125 0  0.25 0.125 0  0.28125 0.125 0  0.3125 0.125 0  0.34375 0.125 0  0.375 0.125 0  0.40625 0.125 0  0.4375 0.125 0  0.46875 0.125 0  0.5 0.125 0  0.53125 0.125 0  0.5625 0.125 0  0.59375 0.125 0  0.625 0.125 0  0.65625 0.125 0  0.6875 0.125 0  0.71875 0.125 0  0.75 0.125 0  0.78125 0.125 0  0.8125 0.125 0  0.84375 0.125 0  0.875 0.125 0  0.90625 0.125 0  0.9375 0.125 0  0.96875 0.125 0  1 0.125 0  1.03125 0.125 0  1.0625 0.125 0  1.09375 0.125 0  1.125 0.125 0  1.15625 0.125 0  1.1875 0.125 0  1.21875 0.125 0  1.25 0.125 0  1.28125 0.125 0  1.3125 0.125 0  1.34375 0.125 0  1.375 0.125 0  1.40625 0.125 0  1.4375 0.125 0  1.46875 0.125 0  1.5 0.125 0  0 0.15625 0  0.03125 0.15625 0  0.0625 0.15625 0  0.09375 0.15625 0  0.125 0.15625 0  0.15625 0.15625 0  0.1875 0.15625 0  0.21875 0.15625 0  0.25 0.15625 0  0.28125 0.15625 0  0.3125 0.15625 0  0.34375 0.15625 0  0.375 0.15625 0  0.40625 0.15625 0  0.4375 0.15625 0  0.46875 0.15625 0  0.5 0.15625 0  0.53125 0.15625 0  0.5625 0.15625 0  0.59375 0.15625 0  0.625 0.15625 0  0.65625 0.15625 0  0.6875 0.15625 0  0.71875 0.15625 0  0.75 0.15625 0  0.78125 0.15625 0  0.8125 0.15625 0  0.84375 0.15625 0  0.875 0.15625 0  0.90625 0.15625 0  0.9375 0.15625 0  0.96875 0.15625 0  1 0.15625 0  1.03125 0.15625 0  1.0625 0.15625 0  1.09375 0.15625 0  1.125 0.15625 0  1.15625 0.15625 0  1.1875 0.15625 0  1.21875 0.15625 0  1.25 0.15625 0  1.28125 0.15625 0  1.3125 0.15625 0  1.34375 0.15625 0  1.375 0.15625 0  1.40625 0.15625 0  1.4375 0.15625 0  1.46875 0.15625 0  1.5 0.15625 0  0 0.1875 0  0.03125 0.1875 0  0.0625 0.1875 0  0.09375 0.1875 0  0.125 0.1875 0  0.15625 0.1875 0  0.1875 0.1875 0  0.21875 0.1875 0  0.25 0.1875 0  0.28125 0.1875 0  0.3125 0.1875 0  0.34375 0.1875 0  0.375 0.1875 0  0.40625 0.1875 0  0.4375 0.1875 0  0.46875 0.1875 0  0.5 0.1875 0  0.53125 0.1875 0  0.5625 0.1875 0  0.59375 0.1875 0  0.625 0.1875 0  0.65625 0.1875 0  0.6875 0.1875 0  0.71875 0.1875 0  0.75 0.1875 0  0.78125 0.1875 0  0.8125 0.1875 0  0.84375 0.1875 0  0.875 0.1875 0  0.90625 0.1875 0  0.9375 0.1875 0  0.96875 0.1875 0  1 0.1875 0  1.03125 0.1875 0  1.0625 0.1875 0  1.09375 0.1875 0  1.125 0.1875 0  1.15625 0.1875 0  1.1875 0.1875 0  1.21875 0.1875 0  1.25 0.1875 0  1.28125 0.1875 0  1.3125 0.1875 0  1.34375 0.1875 0  1.375 0.1875 0  1.40625 0.1875 0  1.4375 0.1875 0  1.46875 0.1875 0  1.5 0.1875 0  0 0.21875 0  0.03125 0.21875 0  0.0625 0.21875 0  0.09375 0.21875 0  0.125 0.21875 0  0.15625 0.21875 0  0.1875 0.21875 0  0.21875 0.21875 0  0.25 0.21875 0  0.28125 0.21875 0  0.3125 0.21875 0  0.34375 0.21875 0  0.375 0.21875 0  0.40625 0.21875 0  0.4375 0.21875 0  0.46875 0.21875 0  0.5 0.21875 0  0.53125 0.21875 0  0.5625 0.21875 0  0.59375 0.21875 0  0.625 0.21875 0  0.65625 0.21875 0  0.6875 0.21875 0  0.71875 0.21875 0  0.75 0.21875 0  0.78125 0.21875 0  0.8125 0.21875 0  0.84375 0.21875 0  0.875 0.21875 0  0.90625 0.21875 0  0.9375 0.21875 0  0.96875 0.21875 0  1 0.21875 0  1.03125 0.21875 0  1.0625 0.21875 0  1.09375 0.21875 0  1.125 0.21875 0  1.15625 0.21875 0  1.1875 0.21875 0  1.21875 0.21875 0  1.25 0.21875 0  1.28125 0.21875 0  1.3125 0.21875 0  1.34375 0.21875 0  1.375 0.21875 0  1.40625 0.21875 0  1.4375 0.21875 0  1.46875 0.21875 0  1.5 0.21875 0  0 0.25 0  0.03125 0.25 0  0.0625 0.25 0  0.09375 0.25 0  0.125 0.25 0  0.15625 0.25 0  0.1875 0.25 0  0.21875 0.25 0  0.25 0.25 0  0.28125 0.25 0  0.3125 0.25 0  0.34375 0.25 0  0.375 0.25 0  0.40625 0.25 0  0.4375 0.25 0  0.46875 0.25 0  0.5 0.25 0  0.53125 0.25 0  0.5625 0.25 0  0.59375 0.25 0  0.625 0.25 0  0.65625 0.25 0  0.6875 0.25 0  0.71875 0.25 0  0.75 0.25 0  0.78125 0.25 0  0.8125 0.25 0  0.84375 0.25 0  0.875 0.25 0  0.90625 0.25 0  0.9375 0.25 0  0.96875 0.25 0  1 0.25 0  1.03125 0.25 0  1.0625 0.25 0  1.09375 0.25 0  1.125 0.25 0  1.15625 0.25 0  1.1875 0.25 0  1.21875 0.25 0  1.25 0.25 0  1.28125 0.25 0  1.3125 0.25 0  1.34375 0.25 0  1.375 0.25 0  1.40625 0.25 0  1.4375 0.25 0  1.46875 0.25 0  1.5 0.25 0  0 0.28125 0  0.03125 0.28125 0  0.0625 0.28125 0  0.09375 0.28125 0  0.125 0.28125 0  0.15625 0.28125 0  0.1875 0.28125 0  0.21875 0.28125 0  0.25 0.28125 0  0.28125 0.28125 0  0.3125 0.28125 0  0.34375 0.28125 0  0.375 0.28125 0  0.40625 0.28125 0  0.4375 0.28125 0  0.46875 0.28125 0  0.5 0.28125 0  0.53125 0.28125 0  0.5625 0.28125 0  0.59375 0.28125 0  0.625 0.28125 0  0.65625 0.28125 0  0.6875 0.28125 0  0.71875 0.28125 0  0.75 0.28125 0  0.78125 0.28125 0  0.8125 0.28125 0  0.84375 0.28125 0  0.875 0.28125 0  0.90625 0.28125 0  0.9375 0.28125 0  0.96875 0.28125 0  1 0.28125 0  1.03125 0.28125 0  1.0625 0.28125 0  1.09375 0.28125 0  1.125 0.28125 0  1.15625 0.28125 0  1.1875 0.28125 0  1.21875 0.28125 0  1.25 0.28125 0  1.28125 0.28125 0  1.3125 0.28125 0  1.34375 0.28125 0  1.375 0.28125 0  1.40625 0.28125 0  1.4375 0.28125 0  1.46875 0.28125 0  1.5 0.28125 0  0 0.3125 0  0.03125 0.3125 0  0.0625 0.3125 0  0.09375 0.3125 0  0.125 0.3125 0  0.15625 0.3125 0  0.1875 0.3125 0  0.21875 0.3125 0  0.25 0.3125 0  0.28125 0.3125 0  0.3125 0.3125 0  0.34375 0.3125 0  0.375 0.3125 0  0.40625 0.3125 0  0.4375 0.3125 0  0.46875 0.3125 0  0.5 0.3125 0  0.53125 0.3125 0  0.5625 0.3125 0  0.59375 0.3125 0  0.625 0.3125 0  0.65625 0.3125 0  0.6875 0.3125 0  0.71875 0.3125 0  0.75 0.3125 0  0.78125 0.3125 0  0.8125 0.3125 0  0.84375 0.3125 0  0.875 0.3125 0  0.90625 0.3125 0  0.9375 0.3125 0  0.96875 0.3125 0  1 0.3125 0  1.03125 0.3125 0  1.0625 0.3125 0  1.09375 0.3125 0  1.125 0.3125 0  1.15625 0.3125 0  1.1875 0.3125 0  1.21875 0.3125 0  1.25 0.3125 0  1.28125 0.3125 0  1.3125 0.3125 0  1.34375 0.3125 0  1.375 0.3125 0  1.40625 0.3125 0  1.4375 0.3125 0  1.46875 0.3125 0  1.5 0.3125 0  0 0.34375 0  0.03125 0.34375 0  0.0625 0.34375 0  0.09375 0.34375 0  0.125 0.34375 0  0.15625 0.34375 0  0.1875 0.34375 0  0.21875 0.34375 0  0.25 0.34375 0  0.28125 0.34375 0  0.3125 0.34375 0  0.34375 0.34375 0  0.375 0.34375 0  0.40625 0.34375 0  0.4375 0.34375 0  0.46875 0.34375 0  0.5 0.34375 0  0.53125 0.34375 0  0.5625 0.34375 0  0.59375 0.34375 0  0.625 0.34375 0  0.65625 0.34375 0  0.6875 0.34375 0  0.71875 0.34375 0  0.75 0.34375 0  0.78125 0.34375 0  0.8125 0.34375 0  0.84375 0.34375 0  0.875 0.34375 0  0.90625 0.34375 0  0.9375 0.34375 0  0.96875 0.34375 0  1 0.34375 0  1.03125 0.34375 0  1.0625 0.34375 0  1.09375 0.34375 0  1.125 0.34375 0  1.15625 0.34375 0  1.1875 0.34375 0  1.21875 0.34375 0  1.25 0.34375 0  1.28125 0.34375 0  1.3125 0.34375 0  1.34375 0.34375 0  1.375 0.34375 0  1
[...]
<PointData  Scalars="f_49"> 
<DataArray  type="Float64"  Name="f_49"  format="ascii">7.9847814982793114e-02  7.8003799481006372e-02  7.3530019510456582e-02  6.9624301316014714e-02  6.5903390104070508e-02  6.2267167717535814e-02  5.8695357330201793e-02  5.5179153533763514e-02  5.1715008461924977e-02  4.8300049045467655e-02  4.4931216471644171e-02  4.1605201717647221e-02  3.8318515767592459e-02  3.5067536117154283e-02  3.1848525399280493e-02  2.8657638922053478e-02  2.5490934346645604e-02  2.2344392108084372e-02  1.9213952334245624e-02  1.6095570733557933e-02  1.2985292167410211e-02  9.8793361267871197e-03  6.7741837515443593e-03  3.6666526693475390e-03  5.5394525051425802e-04  -2.5663410847837410e-03  -5.6962463349214633e-03  -8.8375195239400964e-03  -1.1991718190148586e-02  -1.5160319765948449e-02  -1.8344828794311149e-02  -2.1546866638037655e-02  -2.4768236831510335e-02  -2.8010962317683814e-02  -3.1277299451511573e-02  -3.4569726787182578e-02  -3.7890923424254444e-02  -4.1243718781998534e-02  -4.4631038023106397e-02  -4.8055817093564226e-02  -5.1520746746934874e-02  -5.5028478292740185e-02  -5.8579805224716314e-02  -6.2175307000146875e-02  -6.5824230695004884e-02  -6.9441607369130409e-02  -7.3187574272786188e-02  -7.9427989458843967e-02  -7.9566100242290036e-02  8.0739773999628159e-02  7.9982263690962507e-02  7.4885971386351211e-02  7.0867931383545010e-02  6.7081752071821321e-02  6.3376101999984794e-02  5.9739190998881732e-02  5.6160150857368620e-02  5.2634113237311930e-02  4.9157555462126572e-02  4.5727139690656997e-02  4.2339448311196771e-02  3.8990963592948208e-02  3.5678069290048277e-02  3.2397048975925144e-02  2.9144084789745665e-02  2.5915262595207707e-02  2.2706590060218346e-02  1.9514032429174127e-02  1.6333568336632395e-02  1.3161264498354310e-02  9.9933633993334429e-03  6.8263730994378479e-03  3.6571444223208053e-03  4.8291987837047358e-04  -2.6986579957549470e-03  -5.8895837758775370e-03  -9.0915671222144296e-03  -1.2306138487496315e-02  -1.5534764835360777e-02  -1.8778958058583976e-02  -2.2040363014421957e-02  -2.5320818548693957e-02  -2.8622390256799048e-02  -3.1947378802550198e-02  -3.5298307659464748e-02  -3.8677897280535466e-02  -4.2089025896145452e-02  -4.5534678530056723e-02  -4.9017900070871721e-02  -5.2541655870447887e-02  -5.6109022392238722e-02  -5.9722696939100962e-02  -6.3386485441078555e-02  -6.7116533930536931e-02  -7.0890663087386785e-02  -7.4892485863077479e-02  -8.0474584712270023e-02  -8.1248368846516900e-02  8.2141064128804508e-02  8.1410135273792802e-02  7.6005993585036638e-02  7.1954751264374006e-02  6.8122840944792040e-02  6.4356518020968534e-02  6.0661857671846488e-02  5.7027263546706952e-02  5.3446465906597920e-02  4.9915407932108247e-02  4.6430440507693529e-02  4.2988020167169114e-02  3.9584602028955876e-02  3.6216590501350378e-02  3.2880309365122283e-02  2.9571983417783165e-02  2.6287732709255624e-02  2.3023583358358066e-02  1.9775499359037326e-02  1.6539438852705673e-02  1.3311434804261035e-02  1.0087694457449657e-02  6.8647050909787137e-03  3.6393275081726879e-03  4.0885630622502790e-04  -2.8289701798131497e-03  -6.0760170387781530e-03  -9.3338500449243033e-03  -1.2603864199644880e-02  -1.5887419192774116e-02  -1.9185959856362386e-02  -2.2501106885780633e-02  -2.5834713109987872e-02  -2.9188886599197651e-02  -3.2565989486143379e-02  -3.5968616899015725e-02  -3.9399571260516686e-02  -4.2861825377097471e-02  -4.6358500874813337e-02  -4.9892855674958748e-02  -5.3468255818100455e-02  -5.7088573991242446e-02  -6.0757843168211000e-02  -6.4483351065549352e-02  -6.8283494138420220e-02  -7.2142797702873920e-02  -7.6237753359768720e-02  -8.1786688114323547e-02  -8.2572939587996511e-02  8.3281848304169820e-02  8.2524169442162884e-02  7.7056242872916611e-02  7.2967760714638508e-02  6.9090742705997882e-02  6.5270543964269859e-02  6.1524150405087810e-02  5.7838499097656419e-02  5.4206515574549391e-02  5.0624197518633507e-02  4.7087768229014497e-02  4.3593667536824351e-02  4.0138378946342493e-02  3.6718361751063869e-02  3.3330002090927520e-02  2.9969579514073332e-02  2.6633248340667139e-02  2.3317037429496933e-02  2.0016875103400351e-02  1.6728645670024890e-02  1.3448280530852761e-02  1.0171879670133771e-02  6.8958486703165171e-03  3.6170254376017416e-03  3.3276474975089487e-04  -2.9590468770641669e-03  -6.2600570940046221e-03  -9.5715824776581911e-03  -1.2894781137146864e-02  -1.6230825389735734e-02  -1.9581043650012654e-02  -2.2947015016322181e-02  -2.6330615432451944e-02  -2.9734023562375068e-02  -3.3159700832659129e-02  -3.6610356392088955e-02  -4.0088912462161154e-02  -4.3598471555955108e-02  -4.7142302851103428e-02  -5.0723867305581954e-02  -5.4346812685105141e-02  -5.8015464303349688e-02  -6.1734443145134259e-02  -6.5511622575128728e-02  -6.9365532304513006e-02  -7.3275665863260717e-02  -7.7407734373453649e-02  -8.2945650552663730e-02  -8.3728588790237243e-02  8.4265642553234127e-02  8.3495910608334348e-02  7.7992065723072879e-02  7.3865651869179788e-02  6.9950794766617433e-02  6.6086805120196726e-02  6.2296893031813211e-02  5.8566764502257312e-02  5.4889447288534482e-02  5.1261266533170799e-02  4.7678445106536786e-02  4.4137526136923691e-02  4.0635096861862265e-02  3.7167726088160567e-02  3.3731903640360057e-02  3.0323995138397477e-02  2.6940208049441777e-02  2.3576575909700404e-02  2.0228971517613756e-02  1.6893160997024297e-02  1.3564908289767868e-02  1.0240130102863522e-02  6.9150843414450009e-03  3.5865545214720180e-03  2.5197808856520680e-04  -3.0905293564599053e-03  -6.4422737137152771e-03  -9.8041837473599007e-03  -1.3177058841055758e-02  -1.6561800432517520e-02  -1.9959582426431168e-02  -2.3371944050191024e-02  -2.6800813527460835e-02  -3.0248482464324555e-02  -3.3717555666048137e-02  -3.7210892137920275e-02  -4.0731556652463960e-02  -4.4282779944312428e-02  -4.7867949145011621e-02  -5.1490631866334929e-02  -5.5154579731425742e-02  -5.8864173548387966e-02  -6.2623961997030575e-02  -6.6441322721876250e-02  -7.0333356955300783e-02  -7.4275439621234660e-02  -7.8429305723940856e-02  -8.3969690135679662e-02  -8.4754950901221121e-02  8.5121638617654913e-02  8.4343967071282375e-02  7.8814200804261075e-02  7.4661212294031692e-02  7.0716212549380764e-02  6.6816657207253105e-02  6.2989680061258060e-02  5.9220575335186362e-02  5.5503029352034827e-02  5.1833678537520668e-02  4.8208871404231926e-02  4.4625353051541188e-02  4.1079881183731244e-02  3.7569187844324281e-02  3.4089913182194002e-02  3.0638548683126574e-02  2.7211384407213254e-02  2.3804471163034777e-02  2.0413612910109420e-02  1.7034410535976052e-02  1.3662378846351209e-02  1.0293147337580764e-02  6.9227287815490680e-03  3.5478008938062354e-03  1.6591225263897749e-04  -3.2244764021022755e-03  -6.6241531038484401e-03  -1.0033473667275116e-02  -1.3452734172256864e-02  -1.6882488858833842e-02  -2.0323749897484318e-02  -2.3778060653753590e-02  -2.7247472293701412e-02  -3.0734464897972109e-02  -3.4241851420697522e-02  -3.7772686314486208e-02  -4.1330197367553098e-02  -4.4917736856942052e-02  -4.8538765808380499e-02  -5.2196873749542676e-02  -5.5895758088611913e-02  -5.9639636316973672e-02  -6.3432658308379755e-02  -6.7281458299062527e-02  -7.1201825112363809e-02  -7.5166485553682619e-02  -7.9336846977430334e-02  -8.4886182691209636e-02  -8.5671205398057296e-02  8.5869224233608571e-02  8.5086611362167663e-02  7.9536911243008823e-02  7.5362401047414956e-02  7.1392467103311236e-02  6.7463656142535661e-02  6.3604978759289013e-02  5.9801919243209205e-02  5.6048858415885215e-02  5.2342709345896493e-02  4.8680068068163940e-02  4.5057935771780973e-02  4.1473287877073668e-02  3.7923066298038995e-02  3.4404109670352963e-02  3.0913083132860921e-02  2.7446403406531622e-02  2.4000168986571733e-02  2.0570116327440432e-02  1.7151636133414448e-02  1.3739893077103665e-02  1.0330082882888952e-02  6.9178225917739741e-03  3.4995972725763332e-03  7.3106876117517701e-05  -3.3626602954990527e-03  -6.8077034772068886e-03  -1.0261540950313199e-02  -1.3723789211009075e-02  -1.7194599691033104e-02  -2.0674871217921550e-02  -2.4166261561785734e-02  -2.7671073744890546e-02  -3.1192092740384723e-02  -3.4732427316125213e-02  -3.8295380797839680e-02  -4.1884364504884856e-02  -4.5502841592837573e-02  -4.9154309018143640e-02  -5.2842310467916508e-02  -5.6570401289147081e-02  -6.0342527803187392e-02  -6.4162378555959160e-02  -6.8035882903633188e-02  -7.1977900474059567e-02  -7.5959536303125449e-02  -8.0142990609732859e-02  -8.5701884632454026e-02  -8.6486515085746202e-02  8.6520573721849806e-02  8.5734280370938165e-02  8.0168198449477285e-02  7.5975899115900733e-02  7.1985450782648855e-02  6.8032274927576963e-02  6.4146453249982860e-02  6.0313917440147032e-02  5.6529584563688687e-02  5.2790666393746910e-02  4.9094061542156252e-02  4.5437037345535475e-02  4.1816813863647474e-02  3.8230577552625551e-02  3.4675409548148711e-02  3.1148202915827108e-02  2.7645563005985016e-02  2.4163693090230646e-02  2.0698291117695042e-02  1.7244505919897103e-02  1.3797031289608200e-02  1.0350418559614095e-02  6.8996464233937755e-03  3.4408528436456545e-03  -2.8051499276228348e-05  -3.5072455372825340e-03  -6.9954995558425184e-03  -1.0491103934137717e-02  -1.3992791126956221e-02  -1.7500315517852236e-02  -2.1014616927626444e-02  -2.4537683167126040e-02  -2.8072276593838850e-02  -3.1621648850983293e-02  -3.5189309688647967e-02  -3.8778864761648692e-02  -4.2393921323566473e-02  -4.6038036535113833e-02  -4.9714706050618028e-02  -5.3427380478514822e-02  -5.7179424351604793e-02  -6.0974485527795670e-02  -6.4815813472395123e-02  -6.8708767936876441e-02  -7.2667565773276904e-02  -7.6662281869167348e-02  -8.0856116233063866e-02  -8.6423298214513333e-02  -8.7207424004311002e-02  8.7084443462130373e-02  8.6295184559533236e-02  8.0715411899050349e-02  7.6508299527132867e-02  7.2500745734821195e-02  6.8527001152803496e-02  6.4617917593181556e-02  6.0759820458170841e-02  5.6948020888385353e-02  5.3180036337315599e-02  4.9453052597443439e-02  4.5764589100666532e-02  4.2112116267890090e-02  3.8493081122215153e-02  3.4904840232366015e-02  3.1344570667220351e-02  2.7809146361681147e-02  2.4294968924928672e-02  2.0797774646606707e-02  1.7312476626629287e-02  1.3833168394995867e-02  1.0353454617067303e-02  6.8672720032898170e-03  3.3701222840637969e-03  -1.3978445371980538e-04  -3.6612547422749794e-03  -7.1910828557202617e-03  -1.0725751827531932e-02  -1.4262917350922371e-02  -1.7802099295488837e-02  -2.1344628964627355e-02  -2.4893198680095451e-02  -2.8451331944124268e-02  -3.2022945423803177e-02  -3.5612053746405414e-02  -3.9222598679009471e-02  -4.2858372464139906e-02  -4.6522990841938484e-02  -5.0219903651389321e-02  -5.3952425896739271e-02  -5.7723703402971289e-02  -6.1537084584701078e-02  -6.5395429570283062e-02  -6.9303643714180838e-02  -7.3275493258599805e-02  -7.7280341577541739e-02  -8.1482326865134944e-02  -8.7056288959096714e-02  -8.7839707454911903e-02  8.7567761559998389e-02  8.6776031845692200e-02  8.1184750971641823e-02  7.6965262227750283e-02  7.2943348939899802e-02  6.8952185031761176e-02  6.5023201557715404e-02  6.1143002017723401e-02  5.7307198012162837e-02  5.3513574150178635e-02  4.9759553499446045e-02  4.6042875889697688e-02  4.2361240560823368e-02  3.8712344652546381e-02  3.5093831682270239e-02  3.1503208235565662e-02  2.7937706891821373e-02  2.4394063200670876e-02  2.0868203380996715e-02  1.7354897422540601e-02  1.3847541550025650e-02  1.0338375262582751e-02  6.8196098481454375e-03  3.2855418474672144e-03  -2.6518743111932796e-04  -3.8290010753046114e-03  -7.3993982653335084e-03  -1.0970216348626995e-02  -1.4537992843313285e-02  -1.8102533699497353e-02  -2.1666250073723213e-02  -2.5233124363340631e-02  -2.8807825692464043e-02  -3.2395131086644678e-02  -3.5999620086886917e-02  -3.9625550646997153e-02  -4.3276841976535980e-02  -4.6957099449078381e-02  -5.0669663272562643e-02  -5.4417664322917267e-02  -5.8204003679713491e-02  -6.2031734441590956e-02  -6.5903370012630552e-02  -6.9823446195343655e-02  -7.3805392255003793e-02  -7.7818046195653523e-02  -8.2026344918168889e-02  -8.7605660894942025e-02  -8.8388284562514643e-02  8.7976186075486976e-02  8.7182385218101954e-02  8.1581456040433903e-02  7.7351649548181925e-02  7.3317703084357089e-02  6.9311845529020658e-02  6.5365942038628305e-02  6.1466779455803769e-02  5.7610190366143788e-02  5.3794160887497292e-02  5.0016289005886505e-02  4.6274482439498096e-02  4.2566617537463644e-02  3.8890597275229241e-02  3.5244326253173759e-02  3.1625651644008566e-02  2.8032239615572562e-02  2.4461323528024603e-02  2.0909268053247592e-02  1.7370958747750791e-02  1.3839132713575134e-02  1.0304145556776095e-02  6.7553293253686938e-03  3.1845890024497277e-03  -4.0881418072395600e-04  -4.0169052274124390e-03  -7.6274830869208533e-03  -1.1230639017736849e-02  -1.4822301558498504e-02  -1.8403829269792560e-02  -2.1979919091806230e-02  -2.5556640894616105e-02  -2.9140194601437405e-02  -3.2736317188799657e-02  -3.6350097213806734e-02  -3.9985989410293535e-02  -4.3647909896414962e-02  -4.7339338800678976e-02  -5.1063417560005736e-02  -5.4823032723079645e-02  -5.8620810436149563e-02  -6.2459508081193660e-02  -6.6341323411176281e-02  -7.0270479670638764e-02  -7.4260137923935446e-02  -7.8278728173226578e-02  -8.2491837142464844e-02  -8.8075277076672287e-02  -8.8857057130718328e-02  8.8314371073004633e-02  8.7518850951301269e-02  8.1909927555998796e-02  7.7671615285105577e-02  7.3627701748508217e-02  6.9609608162724435e-02  6.5649521937678423e-02  6.1734341114814309e-02  5.7860046570606574e-02  5.4024756151409885e-02  5.0226175077087980e-02  4.6462308447594886e-02  4.2731131413136406e-02  3.9030669608302267e-02  3.5359007588926926e-02  3.1714275230826962e-02  2.8094579289188615e-02  2.4497784348018803e-02  2.0921019001783534e-02  1.7359795589719687e-02  1.3806573312519518e-02  1.0249389595433849e-02  6.6728298188467256e-03  3.0637557234954689e-03  -5.7767919102808777e-04  -4.2348260620486671e-03  -7.8853380671460131e-03  -1.1514539323374122e-02  -1.5119823670472002e-02  -1.8706753974801343e-02  -2.2284137873818499e-02  -2.5860968219984230e-02  -2.9445144594320613e-02  -3.3043205033838681e-02  -3.6660481501167186e-02  -4.0301363513759701e-02  -4.3969548418116434e-02  -4.7668230630183633e-02  -5.1400243042815257e-02  -5.5168160850533519e-02  -5.8974303632205738e-02  -6.2821130692471666e-02  -6.6710547323855660e-02  -7.0646504897143261e-02  -7.4641940842118157e-02  -7.8664959508707694e-02  -8.2881658688203380e-02  -8.8468196239928937e-02  -8.9249150876839559e-02  8.8586116322160152e-02  8.7789203976221364e-02  8.2173812982632072e-02  7.7928653259059774e-02  7.3876683520365305e-02  6.9848655477904392e-02  6.5876990812899466e-02  6.1948644696831284e-02  5.8059685222067295e-02  5.4208299288119689e-02  5.0392233171556708e-02  4.6609512463671551e-02  4.2858117229983943e-02  3.9136078886376074e-02  3.5441518928859848e-02  3.1772690943277906e-02  2.8128004188241146e-02  2.4505926660795443e-02  2.0904605217809059e-02  1.7320913508373302e-02  1.3748067625210520e-02  1.0172131129356884e-02  6.5702939498868468e-03  2.9180033830911523e-03  -7.8305987982301871e-04  -4.4980790603081971e-03  -8.1865869520879962e-03  -1.1829686778837493e-02  -1.5432177254616545e-02  -1.9008567255248226e-02  -2.2573866192538719e-02  -2.6140308032299144e-02  -2.9717041863615103e-02  -3.3310783924229530e-02  -3.6926559791599985e-02  -4.0568281841076789e-02  -4.4239145755775304e-02  -4.7941877838382441e-02  -5.1678892722912470e-02  -5.5452395782552233e-02  -5.9264377978675044e-02  -6.3117004398964088e-02  -6.7011911666809726e-02  -7.0952814070970815e-02  -7.4952460101853011e-02  -7.8978693501604594e-02  -8.3197998644423565e-02  -8.8786791540812260e-02  -8.9566993783436508e-02  8.8794457487476330e-02  8.7996468591916080e-02  8.2376061838294892e-02  7.8125623370980196e-02  7.4067424244596822e-02  7.0031685468893753e-02  6.6050992997292807e-02  6.2112322220048685e-02  5.8211783004630126e-02  5.4347582832799744e-02  5.0517455668340594e-02  4.6719381887913775e-02  4.2951258780017924e-02  3.9210999210096228e-02  3.5496581820163235e-02  3.1806129220887817e-02  2.8138016818056163e-02  2.4490951658870944e-02  2.0863922111792860e-02  1.7255663949430056e-02  1.3661878827843359e-02  1.0069478153221042e-02  6.4460165602061121e-03  2.7396802073020414e-03  -1.0432211521051260e-03  -4.8292416785179638e-03  -8.5470612896582209e-03  -1.2179832540515596e-02  -1.5754023693349366e-02  -1.9299558291404176e-02  -2.2838429413525024e-02  -2.6384800547334511e-02  -2.9947521598132531e-02  -3.3532286184263994e-02  -3.7143019891223095e-02  -4.0782674570808704e-02  -4.4453666175302588e-02  -4.8158102498671473e-02  -5.1897906957027638e-02  -5.5674889067088673e-02  -5.9490714073430304e-02  -6.3347273611935248e-02  -6.7245968678643547e-02  -7.1190314072646976e-02  -7.5192903220247895e-02  -7.9221376922091802e-02  -8.3442496132639599e-02  -8.9032856975492500e-02  -8.9812427934314501e-02  8.8941721287975450e-02  8.8142967812401371e-02  8.2518956428461576e-02  7.8264759932429234e-02  7.4202119376641631e-02  7.0160865333058473e-02  6.6173692724270039e-02  6.2227576650366802e-02  5.8318640760786390e-02  5.4445084686822784e-02  5.0604601051663110e-02  4.6795089669817526e-02  4.3014314465047783e-02  3.9259987309090243e-02  3.5529800556607490e-02  3.1821491641992987e-02  2.8132960168169224e-02  2.4462434551904704e-02  2.0808727573394491e-02  1.7171441479266657e-02  1.3549440365023887e-02  9.9373369491621809e-03  6.2979339672875273e-03  2.5163892213345336e-03  -1.3822155685237697e-03  -5.2528182970423042e-03  -8.9755532029541004e-03  -1.2553143978242131e-02  -1.6064539788328207e-02  -1.9558420855538584e-02  -2.3059643972139131e-02  -2.6580137783444428e-02  -3.0125746408997293e-02  -3.3699648257725735e-02  -3.7303916001361528e-02  -4.0940190645851721e-02  -4.4609964441360804e-02  -4.8314684870676541e-02  -5.2055791858196761e-02  -5.5834730287361863e-02  -5.9652881806828172e-02  -6.3511911068980562e-02  -6.7413032171005527e-02  -7.1359606447370910e-02  -7.5364110513580246e-02  -7.9394038289095054e-02  -8.3616329964649017e-02  -8.9207693661454257e-02  -8.9986792800895166e-02  8.9029557430430381e-02  8.8230351302419782e-02  8.2604126181690177e-02  7.8347668963186637e-02  7.4282361049145512e-02  7.0237784836845452e-02  6.6246700449962767e-02  6.2296076297395468e-02  5.8382038523469917e-02  5.4502772442797651e-02  5.0655930414781711e-02  4.6839339431946660e-02  4.3050643016854663e-02  3.9287364207662004e-02  3.5546904512109220e-02  3.1826556428529745e-02  2.8123539723090701e-02  2.4435054648865809e-02  2.0758384004869006e-02  1.7090996598058392e-02  1.3430247328225668e-02  9.7786403172920137e-03  6.1194409155425648e-03  2.2405416241096810e-03  -1.7861366438987466e-03  -5.7535515373813356e-03  -9.4453116071824949e-03  -1.2898325247182986e-02  -1.6315720127700321e-02  -1.9748844395461557e-02  -2.3212097595258444e-02  -2.6708958304876195e-02  -3.0239860294663058e-02  -3.3804699793485840e-02  -3.7403555773992118e-02  -4.1036833360624823e-02  -4.4705233449428478e-02  -4.8409677242272318e-02  -5.2151240433113442e-02  -5.5931105478721044e-02  -5.9750457783161029e-02  -6.3610810063067805e-02  -6.7513255860768312e-02  -7.1461059445348502e-02  -7.5466625127631498e-02  -7.9497357251924944e-02  -8.3720287758353940e-02  -8.9312177017312297e-02  -9.0090991922364846e-02  8.9058956143754572e-02  8.8259610106988198e-02  8.2632552630187830e-02  7.8375320895397782e-02  7.4309115704170856e-02  7.0263415142824262e-02  6.6271008274282617e-02  6.2318860200906025e-02  5.8403100552102329e-02  5.4521911113556004e-02  5.0672930208899548e-02  4.6853958666280365e-02  4.3062595576587176e-02  3.9296292912904554e-02  3.5552339456216747e-02  3.1827847225041075e-02  2.8119737986562081e-02  2.4424697688147506e-02  2.0739046510222639e-02  1.7058377136726331e-02  1.3377078745859014e-02  9.6947370436856820e-03  6.0268438929620589e-03  2.0172761653157079e-03  -2.0254102942184157e-03  -6.0351333394370885e-03  -9.8073127134492739e-03  -1.3090925814571108e-02  -1.6427635580079911e-02  -1.98