<?xml version="1.0"?>
<VTKFile type="UnstructuredGrid"  version="0.1"  >
<UnstructuredGrid>
<Piece  NumberOfPoints="1617" NumberOfCells="3072">
<Points>
<DataArray  type="Float64"  NumberOfComponents="3"  format="ascii">0 0 0  0.03125 0 0  0.0625 0 0  0.09375 0 0  0.125 0 0  0.15625 0 0  0.1875 0 0  0.21875 0 0  0.25 0 0  0.28125 0 0  0.3125 0 0  0.34375 0 0  0.375 0 0  0.40625 0 0  0.4375 0 0  0.46875 0 0  0.5 0 0  0.53125 0 0  0.5625 0 0  0.59375 0 0  0.625 0 0  0.65625 0 0  0.6875 0 0  0.71875 0 0  0.75 0 0  0.78125 0 0  0.8125 0 0  0.84375 0 0  0.875 0 0  0.90625 0 0  0.9375 0 0  0.96875 0 0  1 0 0  1.03125 0 0  1.0625 0 0  1.09375 0 0  1.125 0 0  1.15625 0 0  1.1875 0 0  1.21875 0 0  1.25 0 0  1.28125 0 0  1.3125 0 0  1.34375 0 0  1.375 0 0  1.40625 0 0  1.4375 0 0  1.46875 0 0  1.5 0 0  0 0.03125 0  0.03125 0.03125 0  0.0625 0.03125 0  0.09375 0.03125 0  0.125 0.03125 0  0.15625 0.03125 0  0.1875 0.03125 0  0.21875 0.03125 0  0.25 0.03125 0  0.28125 0.03125 0  0.3125 0.03125 0  0.34375 0.03125 0  0.375 0.03125 0  0.40625 0.03125 0  0.4375 0.03125 0  0.46875 0.03125 0  0.5 0.03125 0  0.53125 0.03125 0  0.5625 0.03125 0  0.59375 0.03125 0  0.625 0.03125 0  0.65625 0.03125 0  0.6875 0.03125 0  0.71875 0.03125 0  0.75 0.03125 0  0.78125 0.03125 0  0.8125 0.03125 0  0.84375 0.03125 0  0.875 0.03125 0  0.90625 0.03125 0  0.9375 0.03125 0  0.96875 0.03125 0  1 0.03125 0  1.03125 0.03125 0  1.0625 0.03125 0  1.09375 0.03125 0  1.125 0.03125 0  1.15625 0.03125 0  1.1875 0.03125 0  1.21875 0.03125 0  1.25 0.03125 0  1.28125 0.03125 0  1.3125 0.03125 0  1.34375 0.03125 0  1.375 0.03125 0  1.40625 0.03125 0  1.4375 0.03125 0  1.46875 0.03125 0  1.5 0.03125 0  0 0.0625 0  0.03125 0.0625 0  0.0625 0.0625 0  0.09375 0.0625 0  0.125 0.0625 0  0.15625 0.0625 0  0.1875 0.0625 0  0.21875 0.0625 0  0.25 0.0625 0  0.28125 0.0625 0  0.3125 0.0625 0  0.34375 0.0625 0  0.375 0.0625 0  0.40625 0.0625 0  0.4375 0.0625 0  0.46875 0.0625 0  0.5 0.0625 0  0.53125 0.0625 0  0.5625 0.0625 0  0.59375 0.0625 0  0.625 0.0625 0  0.65625 0.0625 0  0.6875 0.0625 0  0.71875 0.0625 0  0.75 0.0625 0  0.78125 0.0625 0  0.8125 0.0625 0  0.84375 0.0625 0  0.875 0.0625 0  0.90625 0.0625 0  0.9375 0.0625 0  0.96875 0.0625 0  1 0.0625 0  1.03125 0.0625 0  1.0625 0.0625 0  1.09375 0.0625 0  1.125 0.0625 0  1.15625 0.0625 0  1.1875 0.0625 0  1.21875 0.0625 0  1.25 0.0625 0  1.28125 0.0625 0  1.3125 0.0625 0  1.34375 0.0625 0  1.375 0.0625 0  1.40625 0.0625 0  1.4375 0.0625 0  1.46875 0.0625 0  1.5 0.0625 0  0 0.09375 0  0.03125 0.09375 0  0.0625 0.09375 0  0.09375 0.09375 0  0.125 0.09375 0  0.15625 0.09375 0  0.1875 0.09375 0  0.21875 0.09375 0  0.25 0.09375 0  0.28125 0.09375 0  0.3125 0.09375 0  0.34375 0.09375 0  0.375 0.09375 0  0.40625 0.09375 0  0.4375 0.09375 0  0.46875 0.09375 0  0.5 0.09375 0  0.53125 0.09375 0  0.5625 0.09375 0  0.59375 0.09375 0  0.625 0.09375 0  0.65625 0.09375 0  0.6875 0.09375 0  0.71875 0.09375 0  0.75 0.09375 0  0.78125 0.09375 0  0.8125 0.09375 0  0.84375 0.09375 0  0.875 0.09375 0  0.90625 0.09375 0  0.9375 0.09375 0  0.96875 0.09375 0  1 0.09375 0  1.03125 0.09375 0  1.0625 0.09375 0  1.09375 0.09375 0  1.125 0.09375 0  1.15625 0.09375 0  1.1875 0.09375 0  1.21875 0.09375 0  1.25 0.09375 0  1.28125 0.09375 0  1.3125 0.09375 0  1.34375 0.09375 0  1.375 0.09375 0  1.40625 0.09375 0  1.4375 0.09375 0  1.46875 0.09375 0  1.5 0.09375 0  0 0.125 0  0.03125 0.125 0  0.0625 0.125 0  0.09375 0.125 0  0.125 0.125 0  0.15625 0.125 0  0.1875 0.125 0  0.21875 0.125 0  0.25 0.125 0  0.28125 0.125 0  0.3125 0.125 0  0.34375 0.125 0  0.375 0.125 0  0.40625 0.125 0  0.4375 0.125 0  0.46875 0.125 0  0.5 0.125 0  0.53125 0.125 0  0.5625 0.125 0  0.59375 0.125 0  0.625 0.125 0  0.65625 0.125 0  0.6875 0.125 0  0.71875 0.125 0  0.75 0.125 0  0.78125 0.125 0  0.8125 0.125 0  0.84375 0.125 0  0.875 0.125 0  0.90625 0.125 0  0.9375 0.125 0  0.96875 0.125 0  1 0.125 0  1.03125 0.125 0  1.0625 0.125 0  1.09375 0.125 0  1.125 0.125 0  1.15625 0.125 0  1.1875 0.125 0  1.21875 0.125 0  1.25 0.125 0  1.28125 0.125 0  1.3125 0.125 0  1.34375 0.125 0  1.375 0.125 0  1.40625 0.125 0  1.4375 0.125 0  1.46875 0.125 0  1.5 0.125 0  0 0.15625 0  0.03125 0.15625 0  0.0625 0.15625 0  0.09375 0.15625 0  0.125 0.15625 0  0.15625 0.15625 0  0.1875 0.15625 0  0.21875 0.15625 0  0.25 0.15625 0  0.28125 0.15625 0  0.3125 0.15625 0  0.34375 0.15625 0  0.375 0.15625 0  0.40625 0.15625 0  0.4375 0.15625 0  0.46875 0.15625 0  0.5 0.15625 0  0.53125 0.15625 0  0.5625 0.15625 0  0.59375 0.15625 0  0.625 0.15625 0  0.65625 0.15625 0  0.6875 0.15625 0  0.71875 0.15625 0  0.75 0.15625 0  0.78125 0.15625 0  0.8125 0.15625 0  0.84375 0.15625 0  0.875 0.15625 0  0.90625 0.15625 0  0.9375 0.15625 0  0.96875 0.15625 0  1 0.15625 0  1.03125 0.15625 0  1.0625 0.15625 0  1.09375 0.15625 0  1.125 0.15625 0  1.15625 0.15625 0  1.1875 0.15625 0  1.21875 0.15625 0  1.25 0.15625 0  1.28125 0.15625 0  1.3125 0.15625 0  1.34375 0.15625 0  1.375 0.15625 0  1.40625 0.15625 0  1.4375 0.15625 0  1.46875 0.15625 0  1.5 0.15625 0  0 0.1875 0  0.03125 0.1875 0  0.0625 0.1875 0  0.09375 0.1875 0  0.125 0.1875 0  0.15625 0.1875 0  0.1875 0.1875 0  0.21875 0.1875 0  0.25 0.1875 0  0.28125 0.1875 0  0.3125 0.1875 0  0.34375 0.1875 0  0.375 0.1875 0  0.40625 0.1875 0  0.4375 0.1875 0  0.46875 0.1875 0  0.5 0.1875 0  0.53125 0.1875 0  0.5625 0.1875 0  0.59375 0.1875 0  0.625 0.1875 0  0.65625 0.1875 0  0.6875 0.1875 0  0.71875 0.1875 0  0.75 0.1875 0  0.78125 0.1875 0  0.8125 0.1875 0  0.84375 0.1875 0  0.875 0.1875 0  0.90625 0.1875 0  0.9375 0.1875 0  0.96875 0.1875 0  1 0.1875 0  1.03125 0.1875 0  1.0625 0.1875 0  1.09375 0.1875 0  1.125 0.1875 0  1.15625 0.1875 0  1.1875 0.1875 0  1.21875 0.1875 0  1.25 0.1875 0  1.28125 0.1875 0  1.3125 0.1875 0  1.34375 0.1875 0  1.375 0.1875 0  1.40625 0.1875 0  1.4375 0.1875 0  1.46875 0.1875 0  1.5 0.1875 0  0 0.21875 0  0.03125 0.21875 0  0.0625 0.21875 0  0.09375 0.21875 0  0.125 0.21875 0  0.15625 0.21875 0  0.1875 0.21875 0  0.21875 0.21875 0  0.25 0.21875 0  0.28125 0.21875 0  0.3125 0.21875 0  0.34375 0.21875 0  0.375 0.21875 0  0.40625 0.21875 0  0.4375 0.21875 0  0.46875 0.21875 0  0.5 0.21875 0  0.53125 0.21875 0  0.5625 0.21875 0  0.59375 0.21875 0  0.625 0.21875 0  0.65625 0.21875 0  0.6875 0.21875 0  0.71875 0.21875 0  0.75 0.21875 0  0.78125 0.21875 0  0.8125 0.21875 0  0.84375 0.21875 0  0.875 0.21875 0  0.90625 0.21875 0  0.9375 0.21875 0  0.96875 0.21875 0  1 0.21875 0  1.03125 0.21875 0  1.0625 0.21875 0  1.09375 0.21875 0  1.125 0.21875 0  1.15625 0.21875 0  1.1875 0.21875 0  1.21875 0.21875 0  1.25 0.21875 0  1.28125 0.21875 0  1.3125 0.21875 0  1.34375 0.21875 0  1.375 0.21875 0  1.40625 0.21875 0  1.4375 0.21875 0  1.46875 0.21875 0  1.5 0.21875 0  0 0.25 0  0.03125 0.25 0  0.0625 0.25 0  0.09375 0.25 0  0.125 0.25 0  0.15625 0.25 0  0.1875 0.25 0  0.21875 0.25 0  0.25 0.25 0  0.28125 0.25 0  0.3125 0.25 0  0.34375 0.25 0  0.375 0.25 0  0.40625 0.25 0  0.4375 0.25 0  0.46875 0.25 0  0.5 0.25 0  0.53125 0.25 0  0.5625 0.25 0  0.59375 0.25 0  0.625 0.25 0  0.65625 0.25 0  0.6875 0.25 0  0.71875 0.25 0  0.75 0.25 0  0.78125 0.25 0  0.8125 0.25 0  0.84375 0.25 0  0.875 0.25 0  0.90625 0.25 0  0.9375 0.25 0  0.96875 0.25 0  1 0.25 0  1.03125 0.25 0  1.0625 0.25 0  1.09375 0.25 0  1.125 0.25 0  1.15625 0.25 0  1.1875 0.25 0  1.21875 0.25 0  1.25 0.25 0  1.28125 0.25 0  1.3125 0.25 0  1.34375 0.25 0  1.375 0.25 0  1.40625 0.25 0  1.4375 0.25 0  1.46875 0.25 0  1.5 0.25 0  0 0.28125 0  0.03125 0.28125 0  0.0625 0.28125 0  0.09375 0.28125 0  0.125 0.28125 0  0.15625 0.28125 0  0.1875 0.28125 0  0.21875 0.28125 0  0.25 0.28125 0  0.28125 0.28125 0  0.3125 0.28125 0  0.34375 0.28125 0  0.375 0.28125 0  0.40625 0.28125 0  0.4375 0.28125 0  0.46875 0.28125 0  0.5 0.28125 0  0.53125 0.28125 0  0.5625 0.28125 0  0.59375 0.28125 0  0.625 0.28125 0  0.65625 0.28125 0  0.6875 0.28125 0  0.71875 0.28125 0  0.75 0.28125 0  0.78125 0.28125 0  0.8125 0.28125 0  0.84375 0.28125 0  0.875 0.28125 0  0.90625 0.28125 0  0.9375 0.28125 0  0.96875 0.28125 0  1 0.28125 0  1.03125 0.28125 0  1.0625 0.28125 0  1.09375 0.28125 0  1.125 0.28125 0  1.15625 0.28125 0  1.1875 0.28125 0  1.21875 0.28125 0  1.25 0.28125 0  1.28125 0.28125 0  1.3125 0.28125 0  1.34375 0.28125 0  1.375 0.28125 0  1.40625 0.28125 0  1.4375 0.28125 0  1.46875 0.28125 0  1.5 0.28125 0  0 0.3125 0  0.03125 0.3125 0  0.0625 0.3125 0  0.09375 0.3125 0  0.125 0.3125 0  0.15625 0.3125 0  0.1875 0.3125 0  0.21875 0.3125 0  0.25 0.3125 0  0.28125 0.3125 0  0.3125 0.3125 0  0.34375 0.3125 0  0.375 0.3125 0  0.40625 0.3125 0  0.4375 0.3125 0  0.46875 0.3125 0  0.5 0.3125 0  0.53125 0.3125 0  0.5625 0.3125 0  0.59375 0.3125 0  0.625 0.3125 0  0.65625 0.3125 0  0.6875 0.3125 0  0.71875 0.3125 0  0.75 0.3125 0  0.78125 0.3125 0  0.8125 0.3125 0  0.84375 0.3125 0  0.875 0.3125 0  0.90625 0.3125 0  0.9375 0.3125 0  0.96875 0.3125 0  1 0.3125 0  1.03125 0.3125 0  1.0625 0.3125 0  1.09375 0.3125 0  1.125 0.3125 0  1.15625 0.3125 0  1.1875 0.3125 0  1.21875 0.3125 0  1.25 0.3125 0  1.28125 0.3125 0  1.3125 0.3125 0  1.34375 0.3125 0  1.375 0.3125 0  1.40625 0.3125 0  1.4375 0.3125 0  1.46875 0.3125 0  1.5 0.3125 0  0 0.34375 0  0.03125 0.34375 0  0.0625 0.34375 0  0.09375 0.34375 0  0.125 0.34375 0  0.15625 0.34375 0  0.1875 0.34375 0  0.21875 0.34375 0  0.25 0.34375 0  0.28125 0.34375 0  0.3125 0.34375 0  0.34375 0.34375 0  0.375 0.34375 0  0.40625 0.34375 0  0.4375 0.34375 0  0.46875 0.34375 0  0.5 0.34375 0  0.53125 0.34375 0  0.5625 0.34375 0  0.59375 0.34375 0  0.625 0.34375 0  0.65625 0.34375 0  0.6875 0.34375 0  0.71875 0.34375 0  0.75 0.34375 0  0.78125 0.34375 0  0.8125 0.34375 0  0.84375 0.34375 0  0.875 0.34375 0  0.90625 0.34375 0  0.9375 0.34375 0  0.96875 0.34375 0  1 0.34375 0  1.03125 0.34375 0  1.0625 0.34375 0  1.09375 0.34375 0  1.125 0.34375 0  1.15625 0.34375 0  1.1875 0.34375 0  1.21875 0.34375 0  1.25 0.34375 0  1.28125 0.34375 0  1.3125 0.34375 0  1.34375 0.34375 0  1.375 0.34375 0  1
[...]
<PointData  Scalars="f_49"> 
<DataArray  type="Float64"  Name="f_49"  format="ascii">-1.5111420080683305e-01  -1.4482401995430016e-01  -1.3855272360259510e-01  -1.3230348271605630e-01  -1.2614314806463195e-01  -1.1999466399617818e-01  -1.1383145713330013e-01  -1.0765363377737798e-01  -1.0146552769970338e-01  -9.5271144781749570e-02  -8.9073021524758808e-02  -8.2872378196581914e-02  -7.6669541599308694e-02  -7.0464109940150288e-02  -6.4255080749569302e-02  -5.8040936497432249e-02  -5.1819720470916535e-02  -4.5589131500037419e-02  -3.9346647754349373e-02  -3.3089686676428393e-02  -2.6815798997155291e-02  -2.0522884882882623e-02  -1.4209410766760359e-02  -7.8745978988164211e-03  -1.5185521598904872e-03  4.8576902136880547e-03  1.1252211710932415e-02  1.7662353240457597e-02  2.4084917784488645e-02  3.0516411632284402e-02  3.6953271756950699e-02  4.3392079396556052e-02  4.9829678431532118e-02  5.6263314256433078e-02  6.2690545908207440e-02  6.9109437754556552e-02  7.5518037780776634e-02  8.1915157203801325e-02  8.8298418921397212e-02  9.4667669457321177e-02  1.0101740619177860e-01  1.0735135759469856e-01  1.1365162583728888e-01  1.1994315083266982e-01  1.2615838349899403e-01  1.3246019754880206e-01  1.3868713150629960e-01  1.4517463614765908e-01  1.5101253480204768e-01  -1.5222794886714103e-01  -1.4565247012037910e-01  -1.3921995403662740e-01  -1.3283476489058760e-01  -1.2659833932155723e-01  -1.2040256440575829e-01  -1.1420159366083941e-01  -1.0798964908640675e-01  -1.0176912806729788e-01  -9.5542943020716670e-02  -8.9312831944448973e-02  -8.3079741749650535e-02  -7.6843900136331675e-02  -7.0604912492887931e-02  -6.4361851373856402e-02  -5.8113308349937137e-02  -5.1857461262541621e-02  -4.5592161220653168e-02  -3.9315050939203788e-02  -3.3023720918309449e-02  -2.6715900584057803e-02  -2.0389672503361708e-02  -1.4043687357722365e-02  -7.6773493316248933e-03  -1.2909396602794928e-03  5.1143477544599043e-03  1.1536469274519191e-02  1.7972685105608944e-02  2.4419775204967256e-02  3.0874283250922566e-02  3.7332744352103819e-02  4.3791879654541413e-02  5.0248714582556996e-02  5.6700668946539336e-02  6.3145517386070465e-02  6.9581444079526142e-02  7.6006771023037267e-02  8.2420237013453274e-02  8.8820077074249104e-02  9.5205461430779903e-02  1.0157306533914616e-01  1.0792365237367144e-01  1.1424840116692753e-01  1.2055964587174393e-01  1.2683030894009623e-01  1.3317076651134332e-01  1.3952037507675169e-01  1.4614749327485788e-01  1.5266714110326024e-01  -1.5213431822117354e-01  -1.4573005862410676e-01  -1.3919801660936451e-01  -1.3276803261352207e-01  -1.2647920841583982e-01  -1.2025698507183143e-01  -1.1403705148319671e-01  -1.0781238317939509e-01  -1.0158346078931983e-01  -9.5350792579182303e-02  -8.9115074763386135e-02  -8.2876753273575923e-02  -7.6635793959248605e-02  -7.0391737504291091e-02  -6.4143668301208517e-02  -5.7890233309855599e-02  -5.1629682109170176e-02  -4.5359931430854920e-02  -3.9078671223779046e-02  -3.2783516351499800e-02  -2.6472204091221894e-02  -2.0142825901738024e-02  -1.3794068014637428e-02  -7.4254232535598428e-03  -1.0373316863978501e-03  5.3687855320690304e-03  1.1790613210255256e-02  1.8225138135768541e-02  2.4668912647607535e-02  3.1118340257557921e-02  3.7569923868967875e-02  4.4020466791031387e-02  5.0467166881938329e-02  5.6907699003039179e-02  6.3340114845052878e-02  6.9762943826942481e-02  7.6174781374642814e-02  8.2574827775839299e-02  8.8961508562773739e-02  9.5334916117326543e-02  1.0169168892443554e-01  1.0803528515398786e-01  1.1435584961225224e-01  1.2067418232641526e-01  1.2695868590165041e-01  1.3334099458277895e-01  1.3973714494563177e-01  1.4638111590896771e-01  1.5270714319176601e-01  -1.5209989745370325e-01  -1.4581024253016961e-01  -1.3922962112351303e-01  -1.3280673880787897e-01  -1.2647400077987053e-01  -1.2022797318272549e-01  -1.1398303020905066e-01  -1.0774015746539267e-01  -1.0149600396515332e-01  -9.5249770040012893e-02  -8.9001729867514812e-02  -8.2751836989034627e-02  -7.6499871515094242e-02  -7.0245296752568395e-02  -6.3987180091646473e-02  -5.7724189845351603e-02  -5.1454587938424605e-02  -4.5176267237549507e-02  -3.8886837646190463e-02  -3.2583772884100491e-02  -2.6264624776284360e-02  -1.9927295288453151e-02  -1.3570336412998808e-02  -7.1932259470178861e-03  -7.9655473601954034e-04  5.6179317706650063e-03  1.2047461727927743e-02  1.8488513752411315e-02  2.4937176516875100e-02  3.1389515992922327e-02  3.7841872446195766e-02  4.4291069045152426e-02  5.0734486540920394e-02  5.7170100156016472e-02  6.3596348646014447e-02  7.0012176310695826e-02  7.6416649524825228e-02  8.2809396782015710e-02  8.9189441814373799e-02  9.5557299689556605e-02  1.0191069253817989e-01  1.0825337913107273e-01  1.1457805542072969e-01  1.2090477986953320e-01  1.2720707863068065e-01  1.3360973733548118e-01  1.4003140861312074e-01  1.4666010245441874e-01  1.5295983715174313e-01  -1.5209245534455476e-01  -1.4582232432925499e-01  -1.3921927883644533e-01  -1.3280284449314703e-01  -1.2643706057296275e-01  -1.2017292871615277e-01  -1.1390548287809166e-01  -1.0764725358523483e-01  -1.0138830187781891e-01  -9.5129032417041334e-02  -8.8869077211777753e-02  -8.2608104227374482e-02  -7.6345837614023845e-02  -7.0081681258421402e-02  -6.3814726171799896e-02  -5.7543669914509869e-02  -5.1266768843776650e-02  -4.4981840124722734e-02  -3.8686315540450038e-02  -3.2377379948179873e-02  -2.6052209604863687e-02  -1.9708309739290532e-02  -1.3343917309420448e-02  -6.9583935309253577e-03  -5.5250081959288156e-04  5.8715362815042662e-03  1.2310230873247504e-02  1.8759254708225131e-02  2.5213963815245502e-02  3.1669899770175529e-02  3.8123154478783193e-02  4.4570580823496367e-02  5.1009817321457866e-02  5.7439260513014713e-02  6.3857856406495536e-02  7.0265106793526516e-02  7.6660619323700135e-02  8.3044600498960508e-02  8.9416572821744464e-02  9.5777721431550986e-02  1.0212619733682496e-01  1.0846676290633504e-01  1.1479219534507963e-01  1.2112401017091770e-01  1.2743417210678068e-01  1.3384811246820272e-01  1.4027826708242588e-01  1.4690418618138443e-01  1.5319077836081366e-01  -1.5208707608657271e-01  -1.4581235703237430e-01  -1.3919944771303278e-01  -1.3278141710454963e-01  -1.2639331263320330e-01  -1.2011395603321914e-01  -1.1382744050493576e-01  -1.0755515489010997e-01  -1.0128120087983186e-01  -9.5008817019601302e-02  -8.8736316688073191e-02  -8.2463647853606076e-02  -7.6190488210822194e-02  -6.9916281493749885e-02  -6.3640218575661878e-02  -5.7361064797189547e-02  -5.1077094734065590e-02  -4.4786032089299363e-02  -3.8485056240757418e-02  -3.2170917838908457e-02  -2.5840200533652231e-02  -1.9489752361400343e-02  -1.3117253272640910e-02  -6.7218098105378751e-03  -3.0439672028412815e-04  6.1320418366452361e-03  1.2582919722657803e-02  1.9042685606405652e-02  2.5505628734897000e-02  3.1966582600444118e-02  3.8421366671677948e-02  4.4866961965852270e-02  5.1301434515919085e-02  5.7723789262755079e-02  6.4133658005153443e-02  7.0531232525441717e-02  7.6916774402876018e-02  8.3291088533638313e-02  8.9654253844402038e-02  9.6007948776961824e-02  1.0235083215415010e-01  1.0868801566079629e-01  1.1501272941552322e-01  1.2134631268640965e-01  1.2766061974328879e-01  1.3407943348663406e-01  1.4051585724647475e-01  1.4714189231106817e-01  1.5342997617959070e-01  -1.5207398207361214e-01  -1.4578954671848102e-01  -1.3916853090907585e-01  -1.3274353395181632e-01  -1.2633981466345726e-01  -1.2004728789281378e-01  -1.1374502986955885e-01  -1.0745926337710097e-01  -1.0117085333046109e-01  -9.4885516278119933e-02  -8.8600124766254659e-02  -8.2315380256182361e-02  -7.6030805360303114e-02  -6.9746062347635807e-02  -6.3460502867777144e-02  -5.7173042684831234e-02  -5.0882044782867598e-02  -4.4585169695177423e-02  -3.8279310262570393e-02  -3.1960646826180217e-02  -2.5624914823083517e-02  -1.9267955700068548e-02  -1.2886538412888631e-02  -6.4793028089296717e-03  -4.7506756426446906e-05  6.4047907563873846e-03  1.2871294789265290e-02  1.9344617643061883e-02  2.5817557309324096e-02  3.2284089088380014e-02  3.8739855680660157e-02  4.5182216170109625e-02  5.1609968087088662e-02  5.8023010810714405e-02  6.4421886805967499e-02  7.0807634922656792e-02  7.7181249573050642e-02  8.3544168462086552e-02  8.9896974497834611e-02  9.6241803004011472e-02  1.0257761240070155e-01  1.0890984590793573e-01  1.1523174301666668e-01  1.2156471961751118e-01  1.2788000857726659e-01  1.3430085950613607e-01  1.4074115689054764e-01  1.4736908370983148e-01  1.5366065081787894e-01  -1.5205173718269055e-01  -1.4575849145057487e-01  -1.3912973616436761e-01  -1.3269559755343419e-01  -1.2627988758908015e-01  -1.1997573658085936e-01  -1.1365982386437951e-01  -1.0736096408016606e-01  -1.0105879933257562e-01  -9.4760426461690944e-02  -8.8461811200317805e-02  -8.2164454490353867e-02  -7.5867695205072333e-02  -6.9571585146702461e-02  -6.3275683055343812e-02  -5.6979187542601249e-02  -5.0680665415144745e-02  -4.4377813203178788e-02  -3.8067268452573501e-02  -3.1744533133219011e-02  -2.5404192777665612e-02  -1.9040591060140354e-02  -1.2649028513963425e-02  -6.2273154284625916e-03  2.2289536212019830e-04  6.6957539236643573e-03  1.3182246067954335e-02  1.9672220763049884e-02  2.6156470218032746e-02  3.2628087272342635e-02  3.9082875147921269e-02  4.5519069532918698e-02  5.1936693983450292e-02  5.8336938522139281e-02  6.4721525517384693e-02  7.1092488300292550e-02  7.7451610244698196e-02  8.3800940241012797e-02  9.0141511305769695e-02  9.6475798166463955e-02  1.0280297939258501e-01  1.0912863802596420e-01  1.1544603365142406e-01  1.2177643259579596e-01  1.2809081142616732e-01  1.3451176123355610e-01  1.4095466638220566e-01  1.4758462221500190e-01  1.5387942700367233e-01  -1.5202237285634138e-01  -1.4572161513540180e-01  -1.3908536071574010e-01  -1.3264185713832785e-01  -1.2621624765405645e-01  -1.1990145015402502e-01  -1.1357318718778646e-01  -1.0726178268468740e-01  -1.0094640986404127e-01  -9.4634833144529987e-02  -8.8322674618449087e-02  -8.2011998840877301e-02  -7.5702068889731175e-02  -6.9393396443762356e-02  -6.3085807510114417e-02  -5.6778939813359942e-02  -5.0471728720676769e-02  -4.4162100689000658e-02  -3.7846579759247753e-02  -3.1519958482703413e-02  -2.5175343025345635e-02  -1.8804879894290413e-02  -1.2401480306875315e-02  -5.9614568164309623e-03  5.1297263005185920e-04  7.0129523744394103e-03  1.3525003216102388e-02  2.0034800833368952e-02  2.6530606444562517e-02  3.3004955891114261e-02  3.9454611912161403e-02  4.5879570332993468e-02  5.2281809884837459e-02  5.8664301934415616e-02  6.5030215285134571e-02  7.1382674002673563e-02  7.7724233496044959e-02  8.4057472811353270e-02  9.0383757428635678e-02  9.6705778772548115e-02  1.0302280156103667e-01  1.0934045485504273e-01  1.1565191349310132e-01  1.2197830742217737e-01  1.2829036516841316e-01  1.3471019940814166e-01  1.4115457159254291e-01  1.4778615358695685e-01  1.5408375301861313e-01  -1.5198847887332101e-01  -1.4568133458384389e-01  -1.3903808824240585e-01  -1.3258584135182233e-01  -1.2615159231487000e-01  -1.1982686995918478e-01  -1.1348727820686245e-01  -1.0716391585648984e-01  -1.0083572958055079e-01  -9.4510856726538389e-02  -8.8184828927167225e-02  -8.1860030561348190e-02  -7.5535769837394795e-02  -6.9212979138917927e-02  -6.2891819979483954e-02  -5.6572504420491512e-02  -5.0254547917477216e-02  -4.3936411160145752e-02  -3.7614824355260534e-02  -3.1284013688659615e-02  -2.4935336486066922e-02  -1.8557764768352206e-02  -1.2140254597132779e-02  -5.6763192165387669e-03  8.3101102335314851e-04  7.3675680192567140e-03  1.3912273297652943e-02  2.0444537480795784e-02  2.6949875463263266e-02  3.3421429458733005e-02  3.9858539492857545e-02  4.6264372033454730e-02  5.2643805950666381e-02  5.9002088444879544e-02  6.5343997382315597e-02  7.1673707755791433e-02  7.7994404846131432e-02  8.4309014675014476e-02  9.0619052410415069e-02  9.6927252898180619e-02  1.0323282957613576e-01  1.0954133215439600e-01  1.1584579225661280e-01  1.2216714418633697e-01  1.2847592515392345e-01  1.3489378402051849e-01  1.4133871740393980e-01  1.4797141174501072e-01  1.5427120854595788e-01  -1.5195270183392939e-01  -1.4564012834857409e-01  -1.3899056751491323e-01  -1.3253047086651584e-01  -1.2608851499748791e-01  -1.1975462997418464e-01  -1.1340464967999919e-01  -1.0706995460679358e-01  -1.0072940050365156e-01  -9.4391321934630359e-02  -8.8051190940012222e-02  -8.1711541688941819e-02  -7.5371748251277695e-02  -6.9033048985665077e-02  -6.2695957770018282e-02  -5.6361320822882026e-02  -5.0029447184410984e-02  -4.3699724937174965e-02  -3.7369655193219317e-02  -3.1033381211251435e-02  -2.4680548061297335e-02  -1.8295670235128160e-02  -1.1861086000845959e-02  -5.3648328517943416e-03  1.1889233881092745e-03  7.7760379117907926e-03  1.4362032831259804e-02  2.0917235174650464e-02  2.7425462867110333e-02  3.3883429090517496e-02  4.0295951895977733e-02  4.6671322262365762e-02  5.3018293750770204e-02  5.9344661361413739e-02  6.5656694634338902e-02  7.1959330234848407e-02  7.8256052912009766e-02  8.4549826345919357e-02  9.0842052529277920e-02  9.7135297714008292e-02  1.0342856062868443e-01  1.0972719281048188e-01  1.1602400191243455e-01  1.2233969128220006e-01  1.2864459604068337e-01  1.3505994435600568e-01  1.4150474285825754e-01  1.4813805874611335e-01  1.5443952357084542e-01  -1.5191756039382256e-01  -1.4560042567930123e-01  -1.3894533948828727e-01  -1.3247838350835572e-01  -1.2602959990965221e-01  -1.1968744892282807e-01  -1.1332806230271307e-01  -1.0698283198004127e-01  -1.0063058843676312e-01  -9.4279700543264053e-02  -8.7925534782101633e-02  -8.1570629390165530e-02  -7.5214329884794082e-02  -6.8858000548948722e-02  -6.2502396959478471e-02  -5.6148911428058425e-02  -4.9798740899882191e-02  -4.3452570128984846e-02  -3.7109464339553852e-02  -3.0764526339656963e-02  -2.4406540733990078e-02  -1.8014179505552542e-02  -1.1558886384528596e-02  -5.0173168032426885e-03  1.6048503423692431e-03  8.2634322958811228e-03  1.4899736866468248e-02  2.1472259105861039e-02  2.7967925335987867e-02  3.4393374307982977e-02  4.0763347364929606e-02  4.7093366147140235e-02  5.3396523613560301e-02  5.9682818249984212e-02  6.5959375352635435e-02  7.2231245217095022e-02  7.8501658523835977e-02  8.4773181926947133e-02  9.1046780060491758e-02  9.7324613707480565e-02  1.0360530162400669e-01  1.0989388160857062e-01  1.1618286691538508e-01  1.2249269348534535e-01  1.2879348050286313e-01  1.3520607087723921e-01  1.4165025194492470e-01  1.4828380228156654e-01  1.5458647282257906e-01  -1.5188536357440935e-01  -1.4556449446224634e-01  -1.3890474996089774e-01  -1.3243199377609935e-01  -1.2597734524041446e-01  -1.1962800542098180e-01  -1.1326036339284945e-01  -1.0690569774665115e-01  -1.0054281750475848e-01  -9.4179993519482003e-02  -8.7812424183638577e-02  -8.1442501005784942e-02  -7.5069376286608397e-02  -6.8694291921275366e-02  -6.2317965937396233e-02  -5.5942018241601103e-02  -4.9568306918362483e-02  -4.3198874723563797e-02  -3.6835072236624224e-02  -3.0474624597377625e-02  -2.4107872005411236e-02  -1.7707309108162431e-02  -1.1227612913115708e-02  -4.6198441065709661e-03  2.1077727888779959e-03  8.8683559701987769e-03  1.5559690524782219e-02  2.2129510164565887e-02  2.8581917243194407e-02  3.4944895991572959e-02  4.1248324974483039e-02  4.7515816260162783e-02  5.3763808247804704e-02  6.0003012910771147e-02  6.6240071259785940e-02  7.2479114260191241e-02  7.8722384632792172e-02  8.4971551637293627e-02  9.1226810139054523e-02  9.7489697796003402e-02  1.0375831395921990e-01  1.1003729684756731e-01  1.1631881313184629e-01  1.2262301731821092e-01  1.2891979700833128e-01  1.3532966363647878e-01  1.4177295492813141e-01  1.4840647435017648e-01  1.5470997321132077e-01  -1.5185813972284323e-01  -1.4553434680084906e-01  -1.3887088151465202e-01  -1.3239346445648692e-01  -1.2593405414577591e-01  -1.1957881021305609e-01  -1.1320432089312030e-01  -1.0684170451630888e-01  -1.0046972868302019e-01  -9.4096486202608728e-02  -8.7716955858157572e-02  -8.1333253613978446e-02  -7.4944171345280655e-02  -6.8550551808144372e-02  -6.2152674477999326e-02  -5.5751816866598788e-02  -4.9349769041107355e-02  -4.2949241755041556e-02  -3.6553692839649946e-02  -3.0164982426913657e-02  -2.3779177001645068e-02  -1.7366753426563526e-02  -1.0860600870709641e-02  -4.1510744187198854e-03  2.7439056740923826e-03  9.6460845209960754e-03  1.6380333766767771e-02  2.2898272879651665e-02  2.9254483278333337e-02  3.5514094841502843e-02  4.1724216663096517e-02  4.7913654731514620e-02  5.4098481500108250e-02  6.0287224039195668e-02  6.6484071444907422e-02  7.2691005309629630e-02  7.8908543023017835e-02  8.5137025012069267e-02  9.1375630302629060e-02  9.7625136461619702e-02  1.0388305106929741e-01  1.1015358009721084e-01  1.1642852981081145e-01  1.2272778915263687e-01  1.2902101320027776e-01  1.3542845497287870e-01  1.4187078060065703e-01  1.4850412922769651e-01  1.5480815682330201e-01  -1.5183756428950906e-01  -1.4551165552764109e-01  -1.3884547314121340e-01  -1.3236461991145806e-01  -1.2590170453927046e-01  -1.1954205611924953e-01  -1.1316241868433664e-01  -1.0679374716555003e-01  -1.0041476083891580e-01  -9.4033355060986853e-02  -8.7644280351007089e-02  -8.1249322842271030e-02  -7.4846828138820903e-02  -6.8437050454284137e-02  -6.2019486916753977e-02  -5.5594442084518914e-02  -4.9162555081509844e-02  -4.2725548933621280e-02  -3.6286740026891341e-02  -2.9850619365669621e-02  -2.3421177771124263e-02  -1.6980564217536534e-02  -1.0448746191440711e-02  -3.5778617987306579e-03  3.5705624848744680e-03  1.0650740418273410e-02  1.7378229135945177e-02  2.3748044142004422e-02  2.9934251822573366e-02  3.6048082029731088e-02  4.2145431477231911e-02  4.8250507312894458e-02  5.4372528743814069e-02  6.0514131111353682e-02  6.6675139020244550e-02  7.2854458395605587e-02  7.9050460692603394e-02  8.5261989886472919e-02  9.1487162491784624e-02  9.7726004577255249e-02  1.0397546295808242e-01  1.1023935305388226e-01  1.1650915675467496e-01  1.2280455145821037e-01  1.2909497881498647e-01  1.3550052934237444e-01  1.4194198510929121e-01  1.4857513558136426e-01  1.5487946018151649e-01  -1.5182489142377156e-01  -1.4549767764892202e-01  -1.3882983784196723e-01  -1.3234684904109195e-01  -1.2588182139539125e-01  -1.1951945733857217e-01  -1.1313663510557179e-01  -1.0676417305869548e-01  -1.0038076603786580e-01  -9.3994151785680699e-02  -8.7598911440705751e-02  -8.1196561152388241e-02  -7.4785072716752984e-02  -6.8364159846860992e-02  -6.1932529821331725e-02  -5.5489324447534731e-02  -4.9033449447645837e-02  -4.2564141554535570e-02  -3.6081157568146373e-02  -2.9585021103691846e-02  -2.3077534238242443e-02  -1.6556949234820362e-02  -9.9796583947794719e-03  -2.8928427376152055e-03  4.5407588664030767e-03  1.1828111902666947e-02  1.8473602433234152e-02  2.4551659849368725e-02  3.0503376532820193e-02  3.6456957654655960e-02  4.2448148753092059e-02  4.8482164381618703e-02  5.4555292726634841e-02  6.0662186828665518e-02  6.6797841758178780e-02  7.2958183699767878e-02  7.9139698702755890e-02  8.5340004453445098e-02  9.1556389349183170e-02  9.7788318771476909e-02  1.0403232883114485e-01  1.1029196563664598e-01  1.1655847480954641e-01  1.2285141335146023e-01  1.2914004996694514e-01  1.3554442917041890e-01  1.4198524513371985e-01  1.4861825934918899e-01  1.5492270067178615e-01  -1.5182089679300520e-01  -1.4549319140667077e-01  -1.3882479185240121e-01  -1.3234101916389604e-01  -1.2587536517319373e-01  -1.1951210337588387e-01  -1.1312824227666987e-01  -1.0675450996717234e-01  -1.0036962887138266e-01  -9.3981263880437121e-02  -8.7583948790029828e-02  -8.1179096448170562e-02  -7.4764545247118439e-02  -6.8339803650147427e-02  -6.1903270786941328e-02  -5.5453606892948426e-02  -4.8988947325622596e-02  -4.2507235858793589e-02  -3.6005916464386258e-02  -2.9481564176010468e-02  -2.2928905331756060e-02  -1.6343683871799176e-02  -9.7424932967605828e-03  -2.3769787598659007e-03  5.1014810378533382e-03  1.2486399365675697e-02  1.9288229494321685e-02  2.5002742233165520e-02  3.0765458947