<?xml version="1.0"?>
<VTKFile type="UnstructuredGrid"  version="0.1"  >
<UnstructuredGrid>
<Piece  NumberOfPoints="1617" NumberOfCells="3072">
<Points>
<DataArray  type="Float64"  NumberOfComponents="3"  format="ascii">0 0 0  0.03125 0 0  0.0625 0 0  0.09375 0 0  0.125 0 0  0.15625 0 0  0.1875 0 0  0.21875 0 0  0.25 0 0  0.28125 0 0  0.3125 0 0  0.34375 0 0  0.375 0 0  0.40625 0 0  0.4375 0 0  0.46875 0 0  0.5 0 0  0.53125 0 0  0.5625 0 0  0.59375 0 0  0.625 0 0  0.65625 0 0  0.6875 0 0  0.71875 0 0  0.75 0 0  0.78125 0 0  0.8125 0 0  0.84375 0 0  0.875 0 0  0.90625 0 0  0.9375 0 0  0.96875 0 0  1 0 0  1.03125 0 0  1.0625 0 0  1.09375 0 0  1.125 0 0  1.15625 0 0  1.1875 0 0  1.21875 0 0  1.25 0 0  1.28125 0 0  1.3125 0 0  1.34375 0 0  1.375 0 0  1.40625 0 0  1.4375 0 0  1.46875 0 0  1.5 0 0  0 0.03125 0  0.03125 0.03125 0  0.0625 0.03125 0  0.09375 0.03125 0  0.125 0.03125 0  0.15625 0.03125 0  0.1875 0.03125 0  0.21875 0.03125 0  0.25 0.03125 0  0.28125 0.03125 0  0.3125 0.03125 0  0.34375 0.03125 0  0.375 0.03125 0  0.40625 0.03125 0  0.4375 0.03125 0  0.46875 0.03125 0  0.5 0.03125 0  0.53125 0.03125 0  0.5625 0.03125 0  0.59375 0.03125 0  0.625 0.03125 0  0.65625 0.03125 0  0.6875 0.03125 0  0.71875 0.03125 0  0.75 0.03125 0  0.78125 0.03125 0  0.8125 0.03125 0  0.84375 0.03125 0  0.875 0.03125 0  0.90625 0.03125 0  0.9375 0.03125 0  0.96875 0.03125 0  1 0.03125 0  1.03125 0.03125 0  1.0625 0.03125 0  1.09375 0.03125 0  1.125 0.03125 0  1.15625 0.03125 0  1.1875 0.03125 0  1.21875 0.03125 0  1.25 0.03125 0  1.28125 0.03125 0  1.3125 0.03125 0  1.34375 0.03125 0  1.375 0.03125 0  1.40625 0.03125 0  1.4375 0.03125 0  1.46875 0.03125 0  1.5 0.03125 0  0 0.0625 0  0.03125 0.0625 0  0.0625 0.0625 0  0.09375 0.0625 0  0.125 0.0625 0  0.15625 0.0625 0  0.1875 0.0625 0  0.21875 0.0625 0  0.25 0.0625 0  0.28125 0.0625 0  0.3125 0.0625 0  0.34375 0.0625 0  0.375 0.0625 0  0.40625 0.0625 0  0.4375 0.0625 0  0.46875 0.0625 0  0.5 0.0625 0  0.53125 0.0625 0  0.5625 0.0625 0  0.59375 0.0625 0  0.625 0.0625 0  0.65625 0.0625 0  0.6875 0.0625 0  0.71875 0.0625 0  0.75 0.0625 0  0.78125 0.0625 0  0.8125 0.0625 0  0.84375 0.0625 0  0.875 0.0625 0  0.90625 0.0625 0  0.9375 0.0625 0  0.96875 0.0625 0  1 0.0625 0  1.03125 0.0625 0  1.0625 0.0625 0  1.09375 0.0625 0  1.125 0.0625 0  1.15625 0.0625 0  1.1875 0.0625 0  1.21875 0.0625 0  1.25 0.0625 0  1.28125 0.0625 0  1.3125 0.0625 0  1.34375 0.0625 0  1.375 0.0625 0  1.40625 0.0625 0  1.4375 0.0625 0  1.46875 0.0625 0  1.5 0.0625 0  0 0.09375 0  0.03125 0.09375 0  0.0625 0.09375 0  0.09375 0.09375 0  0.125 0.09375 0  0.15625 0.09375 0  0.1875 0.09375 0  0.21875 0.09375 0  0.25 0.09375 0  0.28125 0.09375 0  0.3125 0.09375 0  0.34375 0.09375 0  0.375 0.09375 0  0.40625 0.09375 0  0.4375 0.09375 0  0.46875 0.09375 0  0.5 0.09375 0  0.53125 0.09375 0  0.5625 0.09375 0  0.59375 0.09375 0  0.625 0.09375 0  0.65625 0.09375 0  0.6875 0.09375 0  0.71875 0.09375 0  0.75 0.09375 0  0.78125 0.09375 0  0.8125 0.09375 0  0.84375 0.09375 0  0.875 0.09375 0  0.90625 0.09375 0  0.9375 0.09375 0  0.96875 0.09375 0  1 0.09375 0  1.03125 0.09375 0  1.0625 0.09375 0  1.09375 0.09375 0  1.125 0.09375 0  1.15625 0.09375 0  1.1875 0.09375 0  1.21875 0.09375 0  1.25 0.09375 0  1.28125 0.09375 0  1.3125 0.09375 0  1.34375 0.09375 0  1.375 0.09375 0  1.40625 0.09375 0  1.4375 0.09375 0  1.46875 0.09375 0  1.5 0.09375 0  0 0.125 0  0.03125 0.125 0  0.0625 0.125 0  0.09375 0.125 0  0.125 0.125 0  0.15625 0.125 0  0.1875 0.125 0  0.21875 0.125 0  0.25 0.125 0  0.28125 0.125 0  0.3125 0.125 0  0.34375 0.125 0  0.375 0.125 0  0.40625 0.125 0  0.4375 0.125 0  0.46875 0.125 0  0.5 0.125 0  0.53125 0.125 0  0.5625 0.125 0  0.59375 0.125 0  0.625 0.125 0  0.65625 0.125 0  0.6875 0.125 0  0.71875 0.125 0  0.75 0.125 0  0.78125 0.125 0  0.8125 0.125 0  0.84375 0.125 0  0.875 0.125 0  0.90625 0.125 0  0.9375 0.125 0  0.96875 0.125 0  1 0.125 0  1.03125 0.125 0  1.0625 0.125 0  1.09375 0.125 0  1.125 0.125 0  1.15625 0.125 0  1.1875 0.125 0  1.21875 0.125 0  1.25 0.125 0  1.28125 0.125 0  1.3125 0.125 0  1.34375 0.125 0  1.375 0.125 0  1.40625 0.125 0  1.4375 0.125 0  1.46875 0.125 0  1.5 0.125 0  0 0.15625 0  0.03125 0.15625 0  0.0625 0.15625 0  0.09375 0.15625 0  0.125 0.15625 0  0.15625 0.15625 0  0.1875 0.15625 0  0.21875 0.15625 0  0.25 0.15625 0  0.28125 0.15625 0  0.3125 0.15625 0  0.34375 0.15625 0  0.375 0.15625 0  0.40625 0.15625 0  0.4375 0.15625 0  0.46875 0.15625 0  0.5 0.15625 0  0.53125 0.15625 0  0.5625 0.15625 0  0.59375 0.15625 0  0.625 0.15625 0  0.65625 0.15625 0  0.6875 0.15625 0  0.71875 0.15625 0  0.75 0.15625 0  0.78125 0.15625 0  0.8125 0.15625 0  0.84375 0.15625 0  0.875 0.15625 0  0.90625 0.15625 0  0.9375 0.15625 0  0.96875 0.15625 0  1 0.15625 0  1.03125 0.15625 0  1.0625 0.15625 0  1.09375 0.15625 0  1.125 0.15625 0  1.15625 0.15625 0  1.1875 0.15625 0  1.21875 0.15625 0  1.25 0.15625 0  1.28125 0.15625 0  1.3125 0.15625 0  1.34375 0.15625 0  1.375 0.15625 0  1.40625 0.15625 0  1.4375 0.15625 0  1.46875 0.15625 0  1.5 0.15625 0  0 0.1875 0  0.03125 0.1875 0  0.0625 0.1875 0  0.09375 0.1875 0  0.125 0.1875 0  0.15625 0.1875 0  0.1875 0.1875 0  0.21875 0.1875 0  0.25 0.1875 0  0.28125 0.1875 0  0.3125 0.1875 0  0.34375 0.1875 0  0.375 0.1875 0  0.40625 0.1875 0  0.4375 0.1875 0  0.46875 0.1875 0  0.5 0.1875 0  0.53125 0.1875 0  0.5625 0.1875 0  0.59375 0.1875 0  0.625 0.1875 0  0.65625 0.1875 0  0.6875 0.1875 0  0.71875 0.1875 0  0.75 0.1875 0  0.78125 0.1875 0  0.8125 0.1875 0  0.84375 0.1875 0  0.875 0.1875 0  0.90625 0.1875 0  0.9375 0.1875 0  0.96875 0.1875 0  1 0.1875 0  1.03125 0.1875 0  1.0625 0.1875 0  1.09375 0.1875 0  1.125 0.1875 0  1.15625 0.1875 0  1.1875 0.1875 0  1.21875 0.1875 0  1.25 0.1875 0  1.28125 0.1875 0  1.3125 0.1875 0  1.34375 0.1875 0  1.375 0.1875 0  1.40625 0.1875 0  1.4375 0.1875 0  1.46875 0.1875 0  1.5 0.1875 0  0 0.21875 0  0.03125 0.21875 0  0.0625 0.21875 0  0.09375 0.21875 0  0.125 0.21875 0  0.15625 0.21875 0  0.1875 0.21875 0  0.21875 0.21875 0  0.25 0.21875 0  0.28125 0.21875 0  0.3125 0.21875 0  0.34375 0.21875 0  0.375 0.21875 0  0.40625 0.21875 0  0.4375 0.21875 0  0.46875 0.21875 0  0.5 0.21875 0  0.53125 0.21875 0  0.5625 0.21875 0  0.59375 0.21875 0  0.625 0.21875 0  0.65625 0.21875 0  0.6875 0.21875 0  0.71875 0.21875 0  0.75 0.21875 0  0.78125 0.21875 0  0.8125 0.21875 0  0.84375 0.21875 0  0.875 0.21875 0  0.90625 0.21875 0  0.9375 0.21875 0  0.96875 0.21875 0  1 0.21875 0  1.03125 0.21875 0  1.0625 0.21875 0  1.09375 0.21875 0  1.125 0.21875 0  1.15625 0.21875 0  1.1875 0.21875 0  1.21875 0.21875 0  1.25 0.21875 0  1.28125 0.21875 0  1.3125 0.21875 0  1.34375 0.21875 0  1.375 0.21875 0  1.40625 0.21875 0  1.4375 0.21875 0  1.46875 0.21875 0  1.5 0.21875 0  0 0.25 0  0.03125 0.25 0  0.0625 0.25 0  0.09375 0.25 0  0.125 0.25 0  0.15625 0.25 0  0.1875 0.25 0  0.21875 0.25 0  0.25 0.25 0  0.28125 0.25 0  0.3125 0.25 0  0.34375 0.25 0  0.375 0.25 0  0.40625 0.25 0  0.4375 0.25 0  0.46875 0.25 0  0.5 0.25 0  0.53125 0.25 0  0.5625 0.25 0  0.59375 0.25 0  0.625 0.25 0  0.65625 0.25 0  0.6875 0.25 0  0.71875 0.25 0  0.75 0.25 0  0.78125 0.25 0  0.8125 0.25 0  0.84375 0.25 0  0.875 0.25 0  0.90625 0.25 0  0.9375 0.25 0  0.96875 0.25 0  1 0.25 0  1.03125 0.25 0  1.0625 0.25 0  1.09375 0.25 0  1.125 0.25 0  1.15625 0.25 0  1.1875 0.25 0  1.21875 0.25 0  1.25 0.25 0  1.28125 0.25 0  1.3125 0.25 0  1.34375 0.25 0  1.375 0.25 0  1.40625 0.25 0  1.4375 0.25 0  1.46875 0.25 0  1.5 0.25 0  0 0.28125 0  0.03125 0.28125 0  0.0625 0.28125 0  0.09375 0.28125 0  0.125 0.28125 0  0.15625 0.28125 0  0.1875 0.28125 0  0.21875 0.28125 0  0.25 0.28125 0  0.28125 0.28125 0  0.3125 0.28125 0  0.34375 0.28125 0  0.375 0.28125 0  0.40625 0.28125 0  0.4375 0.28125 0  0.46875 0.28125 0  0.5 0.28125 0  0.53125 0.28125 0  0.5625 0.28125 0  0.59375 0.28125 0  0.625 0.28125 0  0.65625 0.28125 0  0.6875 0.28125 0  0.71875 0.28125 0  0.75 0.28125 0  0.78125 0.28125 0  0.8125 0.28125 0  0.84375 0.28125 0  0.875 0.28125 0  0.90625 0.28125 0  0.9375 0.28125 0  0.96875 0.28125 0  1 0.28125 0  1.03125 0.28125 0  1.0625 0.28125 0  1.09375 0.28125 0  1.125 0.28125 0  1.15625 0.28125 0  1.1875 0.28125 0  1.21875 0.28125 0  1.25 0.28125 0  1.28125 0.28125 0  1.3125 0.28125 0  1.34375 0.28125 0  1.375 0.28125 0  1.40625 0.28125 0  1.4375 0.28125 0  1.46875 0.28125 0  1.5 0.28125 0  0 0.3125 0  0.03125 0.3125 0  0.0625 0.3125 0  0.09375 0.3125 0  0.125 0.3125 0  0.15625 0.3125 0  0.1875 0.3125 0  0.21875 0.3125 0  0.25 0.3125 0  0.28125 0.3125 0  0.3125 0.3125 0  0.34375 0.3125 0  0.375 0.3125 0  0.40625 0.3125 0  0.4375 0.3125 0  0.46875 0.3125 0  0.5 0.3125 0  0.53125 0.3125 0  0.5625 0.3125 0  0.59375 0.3125 0  0.625 0.3125 0  0.65625 0.3125 0  0.6875 0.3125 0  0.71875 0.3125 0  0.75 0.3125 0  0.78125 0.3125 0  0.8125 0.3125 0  0.84375 0.3125 0  0.875 0.3125 0  0.90625 0.3125 0  0.9375 0.3125 0  0.96875 0.3125 0  1 0.3125 0  1.03125 0.3125 0  1.0625 0.3125 0  1.09375 0.3125 0  1.125 0.3125 0  1.15625 0.3125 0  1.1875 0.3125 0  1.21875 0.3125 0  1.25 0.3125 0  1.28125 0.3125 0  1.3125 0.3125 0  1.34375 0.3125 0  1.375 0.3125 0  1.40625 0.3125 0  1.4375 0.3125 0  1.46875 0.3125 0  1.5 0.3125 0  0 0.34375 0  0.03125 0.34375 0  0.0625 0.34375 0  0.09375 0.34375 0  0.125 0.34375 0  0.15625 0.34375 0  0.1875 0.34375 0  0.21875 0.34375 0  0.25 0.34375 0  0.28125 0.34375 0  0.3125 0.34375 0  0.34375 0.34375 0  0.375 0.34375 0  0.40625 0.34375 0  0.4375 0.34375 0  0.46875 0.34375 0  0.5 0.34375 0  0.53125 0.34375 0  0.5625 0.34375 0  0.59375 0.34375 0  0.625 0.34375 0  0.65625 0.34375 0  0.6875 0.34375 0  0.71875 0.34375 0  0.75 0.34375 0  0.78125 0.34375 0  0.8125 0.34375 0  0.84375 0.34375 0  0.875 0.34375 0  0.90625 0.34375 0  0.9375 0.34375 0  0.96875 0.34375 0  1 0.34375 0  1.03125 0.34375 0  1.0625 0.34375 0  1.09375 0.34375 0  1.125 0.34375 0  1.15625 0.34375 0  1.1875 0.34375 0  1.21875 0.34375 0  1.25 0.34375 0  1.28125 0.34375 0  1.3125 0.34375 0  1.34375 0.34375 0  1.375 0.34375 0  1
[...]
<PointData  Scalars="f_49"> 
<DataArray  type="Float64"  Name="f_49"  format="ascii">-1.5364226262163644e-01  -1.4763191166049155e-01  -1.4123767194274436e-01  -1.3461195042903326e-01  -1.2814635296036647e-01  -1.2180354875855864e-01  -1.1551821848331173e-01  -1.0925172200848682e-01  -1.0298650566807638e-01  -9.6716661508583754e-02  -9.0441070362235462e-02  -8.4159917563795802e-02  -7.7873355192287941e-02  -7.1581098839804805e-02  -6.5282349232589285e-02  -5.8975816569705700e-02  -5.2659783640352988e-02  -4.6332198017264264e-02  -3.9990797048151130e-02  -3.3633268559456517e-02  -2.7257443824470640e-02  -2.0861510513397342e-02  -1.4444224251244784e-02  -8.0050907672348862e-03  -1.5444893385299578e-03  4.9362857328805248e-03  1.1435075828139754e-02  1.7948994195391230e-02  2.4474625028630036e-02  3.1008252836406919e-02  3.7546087452395058e-02  4.4084455953215355e-02  5.0619941792943726e-02  5.7149465118870889e-02  6.3670299656887391e-02  7.0180047564247616e-02  7.6676540248698855e-02  8.3157785768063514e-02  8.9621679384157604e-02  9.6066327231222520e-02  1.0248892968456812e-01  1.0888981202332407e-01  1.1526786134079661e-01  1.2165415138254275e-01  1.2805768582528812e-01  1.3474649028272162e-01  1.4164537405128200e-01  1.4814075826563139e-01  1.5359723168087017e-01  -1.5459947693984427e-01  -1.4837265697978641e-01  -1.4188433770819778e-01  -1.3510825763014669e-01  -1.2854554556092396e-01  -1.2215639080658401e-01  -1.1583753700140514e-01  -1.0954086090553200e-01  -1.0324610455366802e-01  -9.6946462891189578e-02  -9.0640624350639326e-02  -8.4328745626550614e-02  -7.8010991076293501e-02  -7.1687117476915321e-02  -6.5356397543306105e-02  -5.9017642310349588e-02  -5.2669259718197969e-02  -4.6309341668578419e-02  -3.9935784172094792e-02  -3.3546443915969011e-02  -2.7139327985807950e-02  -2.0712804282319711e-02  -1.4265810476630744e-02  -7.7980320882976972e-03  -1.3100188305055329e-03  5.1967848560910733e-03  1.1720104477491418e-02  1.8256985962507057e-02  2.4804005605570063e-02  3.1357503561060006e-02  3.7913804831345356e-02  4.4469399833944052e-02  5.1021067920449345e-02  5.7565940678064483e-02  6.4101505879876064e-02  7.0625570742205684e-02  7.7136170083937763e-02  8.3631502779463102e-02  9.0109732444042440e-02  9.6569229776809484e-02  1.0300808038014916e-01  1.0942739772113465e-01  1.1583038674594374e-01  1.2224722527150517e-01  1.2870897443751547e-01  1.3541948069929188e-01  1.4236386372810003e-01  1.4903238896825935e-01  1.5509008673717820e-01  -1.5448118010922662e-01  -1.4838234737526110e-01  -1.4182407215380080e-01  -1.3495877136310849e-01  -1.2832696925893322e-01  -1.2192079304483248e-01  -1.1559228783523282e-01  -1.0928978001145727e-01  -1.0299113601375592e-01  -9.6688569020268220e-02  -9.0380368378111572e-02  -8.4066477692694555e-02  -7.7746941006081552e-02  -7.1421467477876047e-02  -6.5089339451094685e-02  -5.8749413159633064e-02  -5.2400155543059643e-02  -4.6039712810108151e-02  -3.9666017956007375e-02  -3.3276943164494914e-02  -2.6870496011751066e-02  -2.0445047327106215e-02  -1.3999565350359285e-02  -7.5338194146776965e-03  -1.0485122396605997e-03  5.4546922349603157e-03  1.1973258217701354e-02  1.8503970372810631e-02  2.5043191205630155e-02  3.1587134385847766e-02  3.8132108441378390e-02  4.4674700079265432e-02  5.1211883983179038e-02  5.7741063216137443e-02  6.4260049215110665e-02  7.0767007473941823e-02  7.7260359658595207e-02  8.3738732714999667e-02  9.0200792058350007e-02  9.6645564447864998e-02  1.0307205522060305e-01  1.0948284574467636e-01  1.1588320719400362e-01  1.2230609612491786e-01  1.2878379664390352e-01  1.3552202727469578e-01  1.4246680297706316e-01  1.4914559796165874e-01  1.5514818369380681e-01  -1.5442489144112218e-01  -1.4842210872479689e-01  -1.4183048626139511e-01  -1.3493295436165131e-01  -1.2825294014320951e-01  -1.2182582277131747e-01  -1.1547537749189159e-01  -1.0915662274521307e-01  -1.0284477632944533e-01  -9.6530992988729442e-02  -9.0212904601582558e-02  -8.3890080425649174e-02  -7.7562350482939857e-02  -7.1229324966490856e-02  -6.4890259071182038e-02  -5.8544011631783681e-02  -5.2189045780648285e-02  -4.5823468181437225e-02  -3.9445117382263334e-02  -3.3051712563713552e-02  -2.6641067085598304e-02  -2.0211356825996146e-02  -1.3761412815653398e-02  -7.2909868940872090e-03  -8.0092793163860610e-04  5.7067849200203398e-03  1.2229173382712108e-02  1.8762531924990895e-02  2.5302778411168410e-02  3.1845807077102814e-02  3.8387779497504812e-02  4.4925318005846149e-02  5.1455595664384665e-02  5.7976340265732666e-02  6.4485775162426137e-02  7.0982533641637230e-02  7.7465545015689696e-02  8.3933986084553699e-02  9.0387140747958325e-02  9.6824767705327025e-02  1.0324679971799758e-01  1.0965698651780777e-01  1.1606204793410581e-01  1.2249588848219953e-01  1.2899007887391642e-01  1.3574492648180633e-01  1.4269648140032548e-01  1.4935732661074774e-01  1.5536677080150740e-01  -1.5436711113562604e-01  -1.4838797545204524e-01  -1.4177998100879119e-01  -1.3487140355113039e-01  -1.2816385894946988e-01  -1.2171834081886500e-01  -1.1534626313971327e-01  -1.0901169368538573e-01  -1.0268624534629665e-01  -9.6360918785804162e-02  -9.0032759118480118e-02  -8.3701025042487401e-02  -7.7365356550778086e-02  -7.1025291764618401e-02  -6.4680077252029025e-02  -5.8328577170483141e-02  -5.1969229090653220e-02  -4.5600043658089208e-02  -3.9218664340904652e-02  -3.2822508803472018e-02  -2.6409008116932430e-02  -1.9975941119701843e-02  -1.3521828204461434e-02  -7.0463095437710756e-03  -5.5040524855989707e-04  5.9634367199871098e-03  1.2491544182807481e-02  1.9029432889944967e-02  2.5572317093368713e-02  3.2115590947624159e-02  3.8655186019545318e-02  4.5187767162338612e-02  5.1710778892044611e-02  5.8222384671192805e-02  6.4721343410876625e-02  7.1206873600869552e-02  7.7678509250345945e-02  8.4136041907423492e-02  9.0579387855261762e-02  9.7008975643538747e-02  1.0342545698488904e-01  1.0983334517518714e-01  1.1623998677353237e-01  1.2267948906095046e-01  1.2918197356805969e-01  1.3594380682748972e-01  1.4289358406673561e-01  1.4953891378569742e-01  1.5552865717166281e-01  -1.5429786947355753e-01  -1.4832690375907756e-01  -1.4171573342163279e-01  -1.3480024618481667e-01  -1.2807502311528582e-01  -1.2161300096008180e-01  -1.1522252858142695e-01  -1.0887327158756266e-01  -1.0253401826421396e-01  -9.6196577967228108e-02  -8.9857516919434458e-02  -8.3515974090506054e-02  -7.7171500121380993e-02  -7.0823647370535953e-02  -6.4471715645205027e-02  -5.8114617609231180e-02  -5.1750783527803497e-02  -4.5378107928195036e-02  -3.8993963566079898e-02  -3.2595322089256605e-02  -2.6179020552175438e-02  -1.9742190500538992e-02  -1.3282813815281147e-02  -6.8002950301379326e-03  -2.9587452436698631e-04  6.2272926328971832e-03  1.2764468500274496e-02  1.9309990671366711e-02  2.5858049459084365e-02  3.2403361800388220e-02  3.8941603446134322e-02  4.5469573763844764e-02  5.1985148017266225e-02  5.8487104537027872e-02  6.4974902413975660e-02  7.1448474685139290e-02  7.7908043190004383e-02  8.4354043835257159e-02  9.0786992596729496e-02  9.7207876097623172e-02  1.0361785363226926e-01  1.1002186099457024e-01  1.1642745569161383e-01  1.2286853017755203e-01  1.2937412708022836e-01  1.3613809275661734e-01  1.4308490587705622e-01  1.4971862150836895e-01  1.5569583475740192e-01  -1.5422369809984326e-01  -1.4825546249958177e-01  -1.4164186010918153e-01  -1.3471870582154538e-01  -1.2798001613907217e-01  -1.2150380977038727e-01  -1.1509837149827841e-01  -1.0873558757407556e-01  -1.0238305347077657e-01  -9.6033503191298220e-02  -8.9683121819431999e-02  -8.3331131714347875e-02  -7.6977109028670873e-02  -7.0620726700917916e-02  -6.4261424172166792e-02  -5.7898242249081702e-02  -5.1529667670501961e-02  -4.5153506391947755e-02  -3.8766821495952834e-02  -3.2366001619673672e-02  -2.5947039913669555e-02  -1.9506085386100342e-02  -1.3040249661644441e-02  -6.5485128964721103e-03  -3.2418957963685428e-05  6.5037824362870270e-03  1.3053703352999810e-02  1.9609919467922447e-02  2.6165192379926008e-02  3.2713415641977946e-02  3.9250096168151186e-02  4.5772402721309030e-02  5.2278930559713575e-02  5.8769345685318282e-02  6.5244023755281225e-02  7.1703757411022209e-02  7.8149530000516138e-02  8.4582429571969805e-02  9.1003518969810501e-02  9.7414231417255193e-02  1.0381606723986121e-01  1.1021417383909783e-01  1.1661612494568996e-01  1.2305555495881053e-01  1.2956080149049840e-01  1.3632436751807778e-01  1.4326848088609825e-01  1.4989473173896053e-01  1.5586448840536804e-01  -1.5414763458357769e-01  -1.4817981213724221e-01  -1.4156278176043033e-01  -1.3463174938953357e-01  -1.2788171179821575e-01  -1.2139330806728456e-01  -1.1497506206418831e-01  -1.0859962183663394e-01  -1.0223441755682360e-01  -9.5872734752295255e-02  -8.9510578592115531e-02  -8.3147387589189117e-02  -7.6782855699893418e-02  -7.0416872960065477e-02  -6.4049116068502665e-02  -5.7678865983839984e-02  -5.1304781964714510e-02  -4.4924673424609200e-02  -3.8535315359857943e-02  -3.2132401193527706e-02  -2.5710783091455761e-02  -1.9265156188606230e-02  -1.2791241819103006e-02  -6.2872740859538498e-03  2.4476826753133061e-04  6.7988858085220368e-03  1.3366081896753935e-02  1.9936293746254448e-02  2.6500363112527302e-02  3.3051328883796749e-02  3.9584841268805834e-02  4.6098909039429224e-02  5.2593320081224297e-02  5.9069011439472227e-02  6.5527537158823826e-02  7.1970694419995318e-02  7.8400277063988083e-02  8.4818001942337032e-02  9.1225403575784500e-02  9.7624250590004263e-02  1.0401625387635043e-01  1.1040664262716832e-01  1.1680292761516509e-01  1.2323851792692860e-01  1.2974133538833107e-01  1.3650314680608458e-01  1.4344489690061998e-01  1.5006610378923804e-01  1.5603097317911971e-01  -1.5407144039403312e-01  -1.4810291739480799e-01  -1.4148176344869853e-01  -1.3454307032548504e-01  -1.2778298942676178e-01  -1.2128377935670720e-01  -1.1485400700756128e-01  -1.0846665971758411e-01  -1.0208925138444939e-01  -9.5715320522369696e-02  -8.9340888324667689e-02  -8.2965630262204854e-02  -7.6589414315135274e-02  -7.0212415593491909e-02  -6.3834642979507902e-02  -5.7455751813113444e-02  -5.1074745950383464e-02  -4.4689616078341522e-02  -3.8296975350075507e-02  -3.1891779380753861e-02  -2.5467408677096216e-02  -1.9016433828139095e-02  -1.2532332416065009e-02  -6.0120006750722524e-03  5.4194855673062297e-04  7.1206069352890682e-03  1.3710728966215703e-02  2.0298285527967815e-02  2.6871690284971557e-02  3.3423416076502531e-02  3.9950000796945162e-02  4.6451131909128321e-02  5.2928493796455874e-02  5.9384777479899037e-02  6.5822984004353630e-02  7.2246016338958094e-02  7.8656466372532097e-02  8.5056598558592517e-02  9.1448302116484734e-02  9.7833551057435880e-02  1.0421414298103435e-01  1.1059528735982589e-01  1.1698438291566167e-01  1.2341463722668271e-01  1.2991370655089016e-01  1.3667289134823954e-01  1.4361228880651206e-01  1.5022960942559260e-01  1.5619079819325501e-01  -1.5399702726447140e-01  -1.4802733315659414e-01  -1.4140187416108871e-01  -1.3445599305060313e-01  -1.2768685051964668e-01  -1.2117784313886953e-01  -1.1473745041053926e-01  -1.0833883037655431e-01  -1.0194952848676483e-01  -9.5563211445983370e-02  -8.9175986689079820e-02  -8.2787712845055483e-02  -7.6398444806314289e-02  -7.0008663769742435e-02  -6.3618777292277412e-02  -5.7228946635932185e-02  -5.0838736416999916e-02  -4.4446598122290223e-02  -3.8049280052445636e-02  -3.1641114215163101e-02  -2.5213722480759187e-02  -1.8756619994855908e-02  -1.2259601645103233e-02  -5.7170639041571004e-03  8.6746649966680978e-04  7.4800050098540972e-03  1.4100130751121237e-02  2.0707873062968819e-02  2.7288976461370927e-02  3.3836408859657559e-02  4.0349113247443509e-02  4.6829806840929813e-02  5.3282999367771422e-02  5.9713638971939868e-02  6.6126354867000997e-02  7.2525133681212772e-02  7.8913234808475480e-02  8.5293294937623040e-02  9.1667376061094999e-02  9.8037490374775466e-02  1.0440538317196091e-01  1.1077614083824937e-01  1.1715699486185525e-01  1.2358094322332400e-01  1.3007543398311236e-01  1.3683140686619358e-01  1.4376832763335540e-01  1.5038230927432644e-01  1.5634045471253874e-01  -1.5392659264120148e-01  -1.4795557066004630e-01  -1.4132594200954532e-01  -1.3437348145664949e-01  -1.2759615543894043e-01  -1.2107822306971577e-01  -1.1462800434602304e-01  -1.0821871195996746e-01  -1.0181784061282781e-01  -9.5419112174919163e-02  -8.9018677161758250e-02  -8.2616489222104794e-02  -7.6212741608039508e-02  -6.9808172082439571e-02  -6.3403584094618479e-02  -5.6999723804605641e-02  -5.0596926087033797e-02  -4.4194470847093784e-02  -3.7789774286662713e-02  -3.1376960313271973e-02  -2.4945885206761095e-02  -1.8481815269386991e-02  -1.1968432459386112e-02  -5.3951881957538849e-03  1.2331521544993317e-03  7.8931825917787184e-03  1.4551876660543658e-02  2.1180616556478609e-02  2.7763381774781885e-02  3.4296375678721222e-02  4.0783693037389213e-02  4.7232987797089836e-02  5.3652585492442534e-02  6.0050008529827954e-02  6.6431438155362108e-02  7.2801685576254299e-02  7.9164364002397278e-02  8.5522180724604241e-02  9.1877109910354512e-02  9.8230991321328592e-02  1.0458535819491438e-01  1.1094506121180750e-01  1.1731709795043758e-01  1.2373422545034965e-01  1.3022368976804258e-01  1.3697610627872198e-01  1.4391043527100802e-01  1.5052140195131072e-01  1.5647693378881083e-01  -1.5386240321489489e-01  -1.4789006347595479e-01  -1.4125659540530600e-01  -1.3429826891602423e-01  -1.2751366130962188e-01  -1.2098770251334147e-01  -1.1452850857606740e-01  -1.0810926534084089e-01  -1.0169734977365028e-01  -9.5286457911630165e-02  -8.8872689435038663e-02  -8.2455977989200319e-02  -7.6036534091815239e-02  -6.9615211371574295e-02  -6.3193087262927009e-02  -5.6771435838188937e-02  -5.0351449141983591e-02  -4.3933594531519141e-02  -3.7516697063557904e-02  -3.1095583462979689e-02  -2.4659150090869150e-02  -1.8187206305854065e-02  -1.1653413694171340e-02  -5.0366700053935702e-03  1.6567565584078585e-03  8.3845823514235064e-03  1.5090907628147862e-02  2.1735736764362367e-02  2.8305688420560467e-02  3.4806159745837423e-02  4.1250680228959904e-02  4.7653953022948461e-02  5.4028686602172214e-02  6.0384725421280198e-02  6.6729233938696619e-02  7.3067234237355130e-02  7.9402152517495717e-02  8.5736333375009341e-02  9.2071334610848016e-02  9.8408584019629514e-02  1.0474923501456629e-01  1.1109779092762571e-01  1.1746094798076880e-01  1.2387118510100990e-01  1.3035553308689563e-01  1.3710429751257078e-01  1.4403601905217736e-01  1.5064425018900193e-01  1.5659752630601106e-01  -1.5380662317521990e-01  -1.4783307982571162e-01  -1.4119624440082004e-01  -1.3423287457787045e-01  -1.2744198884098740e-01  -1.2090903353278529e-01  -1.1444189982701415e-01  -1.0801369404765668e-01  -1.0159162407338429e-01  -9.5169279498037010e-02  -8.8742607042803803e-02  -8.2311385491971187e-02  -7.5875664693136682e-02  -6.9436181526522908e-02  -6.2994009972103665e-02  -5.6550659552579992e-02  -5.0107958825179315e-02  -4.3667639681439670e-02  -3.7230568649309653e-02  -3.0793780692197754e-02  -2.4347663201121902e-02  -1.7866509401026118e-02  -1.1308515289502594e-02  -4.6279846398739723e-03  2.1665452408243763e-03  8.9920874620322555e-03  1.5751233928675178e-02  2.2393402347707075e-02  2.8921210397863790e-02  3.5360156235145233e-02  4.1738273956460924e-02  4.8078365220176771e-02  5.4396718081186117e-02  6.0704164562842056e-02  6.7007582773817104e-02  7.3311194563747101e-02  7.9617500409759498e-02  8.5927968252750189e-02  9.2243392885033235e-02  9.8564562271279035e-02  1.0489210458524560e-01  1.1123008764040639e-01  1.1758485652602976e-01  1.2398858750060120e-01  1.3046808515692038e-01  1.3721336250025390e-01  1.4414260911882218e-01  1.5074842817191858e-01  1.5669979784346719e-01  -1.5376119554428344e-01  -1.4778663897190183e-01  -1.4114702764301823e-01  -1.3417955484416730e-01  -1.2738353990678461e-01  -1.2084481286294910e-01  -1.1437104397770134e-01  -1.0793523409861606e-01  -1.0150439544604835e-01  -9.5071954381717227e-02  -8.8633625519328560e-02  -8.2188911513448024e-02  -7.5737517922623232e-02  -6.9279788813173607e-02  -6.2816392391717699e-02  -5.6348513985049968e-02  -4.9877919415929166e-02  -4.3406933979523832e-02  -3.6938193000066587e-02  -3.0472387438535937e-02  -2.4005720332175857e-02  -1.7511473837457398e-02  -1.0927663063454357e-02  -4.1485114011056614e-03  2.8083563631693983e-03  9.7712563910776797e-03  1.6572019459672061e-02  2.3163786186346961e-02  2.9597969876993334e-02  3.5935189250892181e-02  4.2220182987820959e-02  4.8481212044665330e-02  5.4734767952251462e-02  6.0989921899915839e-02  6.7251346102443113e-02  7.3521218156636564e-02  7.9800342066064650e-02  8.6088846601426725e-02  9.2386493653463714e-02  9.8693279558640393e-02  1.0500922673661932e-01  1.1133793104773514e-01  1.1768537437982293e-01  1.2408343422940156e-01  1.3055869490288871e-01  1.3730090974414991e-01  1.4422798036044951e-01  1.5083179421437995e-01  1.5678163031316139e-01  -1.5372774672629277e-01  -1.4775242682903411e-01  -1.4111073421508974e-01  -1.3414021543074503e-01  -1.2734037895601230e-01  -1.2079732190533253e-01  -1.1431852383623235e-01  -1.0787688270656456e-01  -1.0143922478504401e-01  -9.4998801115460510e-02  -8.8551071092988640e-02  -8.2095207969984665e-02  -7.5630469189145400e-02  -6.9156609169112745e-02  -6.2673531544902364e-02  -5.6181465630425614e-02  -4.9681057548767546e-02  -4.3173558908132563e-02  -3.6661108457437655e-02  -3.0146559266806927e-02  -2.3634256533473487e-02  -1.7110670070721583e-02  -1.0502593644857540e-02  -3.5651388615338046e-03  3.6409407643379437e-03  1.0778622107640332e-02  1.7572442265072860e-02  2.4017831277278221e-02  3.0284632716232884e-02  3.6477944166599628e-02  4.2650008702849351e-02  4.8825161297955229e-02  5.5013848103310295e-02  6.1219791260332217e-02  6.7443534753511197e-02  7.3684230620934127e-02  7.9940513596545026e-02  8.6210967476306771e-02  9.2494251071789893e-02  9.8789565418068492e-02  1.0509635344715557e-01  1.1141777889074055e-01  1.1775950130352093e-01  1.2415314182841852e-01  1.3062509525226870e-01  1.3736490943154919e-01  1.4429026229815278e-01  1.5089256976297186e-01  1.5684127961267336e-01  -1.5370750591817581e-01  -1.4773171691403833e-01  -1.4108871989796321e-01  -1.3411631139903019e-01  -1.2731410221670633e-01  -1.2076835263447563e-01  -1.1428640623323973e-01  -1.0784108886313981e-01  -1.0139909136098861e-01  -9.4953532971896390e-02  -8.8499674353589061e-02  -8.2036420793200060e-02  -7.5562644892257447e-02  -6.9077554728904769e-02  -6.2580265761668072e-02  -5.6069854922554112e-02  -4.9545251072735205e-02  -4.3005124207961730e-02  -3.6447793989663788e-02  -2.9871657940711286e-02  -2.3278939381211807e-02  -1.6673844075357637e-02  -1.0021273523235896e-02  -2.8692375539533417e-03  4.6191579592087346e-03  1.1963242442545138e-02  1.8675553841701741e-02  2.4828437938335172e-02  3.0861498418093145e-02  3.6895425180894226e-02  4.2961033961938906e-02  4.9063570358348157e-02  5.5201400542096671e-02  6.1370809156702726e-02  6.7567684349576246e-02  7.3788197273596368e-02  8.0029036830461475e-02  8.6287494218107649e-02  9.2561353733715795e-02  9.8849212599136399e-02  1.0515008871642209e-01  1.1146683882180045e-01  1.1780489773292764e-01  1.2419571223682399e-01  1.3066554416306475e-01  1.3740381083020081e-01  1.4432803507028777e-01  1.5092941444107558e-01  1.5687743802950221e-01  -1.5370124161910056e-01  -1.4772530511472759e-01  -1.4108183379825354e-01  -1.3410875706277997e-01  -1.2730571944852312e-01  -1.2075904877690083e-01  -1.1427602526506923e-01  -1.0782945457501865e-01  -1.0138597528426900e-01  -9.4938665307494452e-02  -8.8482715153037794e-02  -8.2016936066723695e-02  -7.5540059950950186e-02  -6.9051089178186767e-02  -6.2548828495528550e-02  -5.6031871594830911e-02  -4.9498362078666300e-02  -4.2945635591684655e-02  -3.6369655554668270e-02  -2.9764701513679138e-02  -2.3125693042059248e-02  -1.6454574104908117e-02  -9.7776233026399678e-03  -2.3450948505227354e-03  5.1862143590018896e-03  1.2627175709459825e-02  1.9498443636489976e-02  2.5284867979066528e-02  3.1127356026