<?xml version="1.0"?>
<VTKFile type="UnstructuredGrid"  version="0.1"  >
<UnstructuredGrid>
<Piece  NumberOfPoints="1617" NumberOfCells="3072">
<Points>
<DataArray  type="Float64"  NumberOfComponents="3"  format="ascii">0 0 0  0.03125 0 0  0.0625 0 0  0.09375 0 0  0.125 0 0  0.15625 0 0  0.1875 0 0  0.21875 0 0  0.25 0 0  0.28125 0 0  0.3125 0 0  0.34375 0 0  0.375 0 0  0.40625 0 0  0.4375 0 0  0.46875 0 0  0.5 0 0  0.53125 0 0  0.5625 0 0  0.59375 0 0  0.625 0 0  0.65625 0 0  0.6875 0 0  0.71875 0 0  0.75 0 0  0.78125 0 0  0.8125 0 0  0.84375 0 0  0.875 0 0  0.90625 0 0  0.9375 0 0  0.96875 0 0  1 0 0  1.03125 0 0  1.0625 0 0  1.09375 0 0  1.125 0 0  1.15625 0 0  1.1875 0 0  1.21875 0 0  1.25 0 0  1.28125 0 0  1.3125 0 0  1.34375 0 0  1.375 0 0  1.40625 0 0  1.4375 0 0  1.46875 0 0  1.5 0 0  0 0.03125 0  0.03125 0.03125 0  0.0625 0.03125 0  0.09375 0.03125 0  0.125 0.03125 0  0.15625 0.03125 0  0.1875 0.03125 0  0.21875 0.03125 0  0.25 0.03125 0  0.28125 0.03125 0  0.3125 0.03125 0  0.34375 0.03125 0  0.375 0.03125 0  0.40625 0.03125 0  0.4375 0.03125 0  0.46875 0.03125 0  0.5 0.03125 0  0.53125 0.03125 0  0.5625 0.03125 0  0.59375 0.03125 0  0.625 0.03125 0  0.65625 0.03125 0  0.6875 0.03125 0  0.71875 0.03125 0  0.75 0.03125 0  0.78125 0.03125 0  0.8125 0.03125 0  0.84375 0.03125 0  0.875 0.03125 0  0.90625 0.03125 0  0.9375 0.03125 0  0.96875 0.03125 0  1 0.03125 0  1.03125 0.03125 0  1.0625 0.03125 0  1.09375 0.03125 0  1.125 0.03125 0  1.15625 0.03125 0  1.1875 0.03125 0  1.21875 0.03125 0  1.25 0.03125 0  1.28125 0.03125 0  1.3125 0.03125 0  1.34375 0.03125 0  1.375 0.03125 0  1.40625 0.03125 0  1.4375 0.03125 0  1.46875 0.03125 0  1.5 0.03125 0  0 0.0625 0  0.03125 0.0625 0  0.0625 0.0625 0  0.09375 0.0625 0  0.125 0.0625 0  0.15625 0.0625 0  0.1875 0.0625 0  0.21875 0.0625 0  0.25 0.0625 0  0.28125 0.0625 0  0.3125 0.0625 0  0.34375 0.0625 0  0.375 0.0625 0  0.40625 0.0625 0  0.4375 0.0625 0  0.46875 0.0625 0  0.5 0.0625 0  0.53125 0.0625 0  0.5625 0.0625 0  0.59375 0.0625 0  0.625 0.0625 0  0.65625 0.0625 0  0.6875 0.0625 0  0.71875 0.0625 0  0.75 0.0625 0  0.78125 0.0625 0  0.8125 0.0625 0  0.84375 0.0625 0  0.875 0.0625 0  0.90625 0.0625 0  0.9375 0.0625 0  0.96875 0.0625 0  1 0.0625 0  1.03125 0.0625 0  1.0625 0.0625 0  1.09375 0.0625 0  1.125 0.0625 0  1.15625 0.0625 0  1.1875 0.0625 0  1.21875 0.0625 0  1.25 0.0625 0  1.28125 0.0625 0  1.3125 0.0625 0  1.34375 0.0625 0  1.375 0.0625 0  1.40625 0.0625 0  1.4375 0.0625 0  1.46875 0.0625 0  1.5 0.0625 0  0 0.09375 0  0.03125 0.09375 0  0.0625 0.09375 0  0.09375 0.09375 0  0.125 0.09375 0  0.15625 0.09375 0  0.1875 0.09375 0  0.21875 0.09375 0  0.25 0.09375 0  0.28125 0.09375 0  0.3125 0.09375 0  0.34375 0.09375 0  0.375 0.09375 0  0.40625 0.09375 0  0.4375 0.09375 0  0.46875 0.09375 0  0.5 0.09375 0  0.53125 0.09375 0  0.5625 0.09375 0  0.59375 0.09375 0  0.625 0.09375 0  0.65625 0.09375 0  0.6875 0.09375 0  0.71875 0.09375 0  0.75 0.09375 0  0.78125 0.09375 0  0.8125 0.09375 0  0.84375 0.09375 0  0.875 0.09375 0  0.90625 0.09375 0  0.9375 0.09375 0  0.96875 0.09375 0  1 0.09375 0  1.03125 0.09375 0  1.0625 0.09375 0  1.09375 0.09375 0  1.125 0.09375 0  1.15625 0.09375 0  1.1875 0.09375 0  1.21875 0.09375 0  1.25 0.09375 0  1.28125 0.09375 0  1.3125 0.09375 0  1.34375 0.09375 0  1.375 0.09375 0  1.40625 0.09375 0  1.4375 0.09375 0  1.46875 0.09375 0  1.5 0.09375 0  0 0.125 0  0.03125 0.125 0  0.0625 0.125 0  0.09375 0.125 0  0.125 0.125 0  0.15625 0.125 0  0.1875 0.125 0  0.21875 0.125 0  0.25 0.125 0  0.28125 0.125 0  0.3125 0.125 0  0.34375 0.125 0  0.375 0.125 0  0.40625 0.125 0  0.4375 0.125 0  0.46875 0.125 0  0.5 0.125 0  0.53125 0.125 0  0.5625 0.125 0  0.59375 0.125 0  0.625 0.125 0  0.65625 0.125 0  0.6875 0.125 0  0.71875 0.125 0  0.75 0.125 0  0.78125 0.125 0  0.8125 0.125 0  0.84375 0.125 0  0.875 0.125 0  0.90625 0.125 0  0.9375 0.125 0  0.96875 0.125 0  1 0.125 0  1.03125 0.125 0  1.0625 0.125 0  1.09375 0.125 0  1.125 0.125 0  1.15625 0.125 0  1.1875 0.125 0  1.21875 0.125 0  1.25 0.125 0  1.28125 0.125 0  1.3125 0.125 0  1.34375 0.125 0  1.375 0.125 0  1.40625 0.125 0  1.4375 0.125 0  1.46875 0.125 0  1.5 0.125 0  0 0.15625 0  0.03125 0.15625 0  0.0625 0.15625 0  0.09375 0.15625 0  0.125 0.15625 0  0.15625 0.15625 0  0.1875 0.15625 0  0.21875 0.15625 0  0.25 0.15625 0  0.28125 0.15625 0  0.3125 0.15625 0  0.34375 0.15625 0  0.375 0.15625 0  0.40625 0.15625 0  0.4375 0.15625 0  0.46875 0.15625 0  0.5 0.15625 0  0.53125 0.15625 0  0.5625 0.15625 0  0.59375 0.15625 0  0.625 0.15625 0  0.65625 0.15625 0  0.6875 0.15625 0  0.71875 0.15625 0  0.75 0.15625 0  0.78125 0.15625 0  0.8125 0.15625 0  0.84375 0.15625 0  0.875 0.15625 0  0.90625 0.15625 0  0.9375 0.15625 0  0.96875 0.15625 0  1 0.15625 0  1.03125 0.15625 0  1.0625 0.15625 0  1.09375 0.15625 0  1.125 0.15625 0  1.15625 0.15625 0  1.1875 0.15625 0  1.21875 0.15625 0  1.25 0.15625 0  1.28125 0.15625 0  1.3125 0.15625 0  1.34375 0.15625 0  1.375 0.15625 0  1.40625 0.15625 0  1.4375 0.15625 0  1.46875 0.15625 0  1.5 0.15625 0  0 0.1875 0  0.03125 0.1875 0  0.0625 0.1875 0  0.09375 0.1875 0  0.125 0.1875 0  0.15625 0.1875 0  0.1875 0.1875 0  0.21875 0.1875 0  0.25 0.1875 0  0.28125 0.1875 0  0.3125 0.1875 0  0.34375 0.1875 0  0.375 0.1875 0  0.40625 0.1875 0  0.4375 0.1875 0  0.46875 0.1875 0  0.5 0.1875 0  0.53125 0.1875 0  0.5625 0.1875 0  0.59375 0.1875 0  0.625 0.1875 0  0.65625 0.1875 0  0.6875 0.1875 0  0.71875 0.1875 0  0.75 0.1875 0  0.78125 0.1875 0  0.8125 0.1875 0  0.84375 0.1875 0  0.875 0.1875 0  0.90625 0.1875 0  0.9375 0.1875 0  0.96875 0.1875 0  1 0.1875 0  1.03125 0.1875 0  1.0625 0.1875 0  1.09375 0.1875 0  1.125 0.1875 0  1.15625 0.1875 0  1.1875 0.1875 0  1.21875 0.1875 0  1.25 0.1875 0  1.28125 0.1875 0  1.3125 0.1875 0  1.34375 0.1875 0  1.375 0.1875 0  1.40625 0.1875 0  1.4375 0.1875 0  1.46875 0.1875 0  1.5 0.1875 0  0 0.21875 0  0.03125 0.21875 0  0.0625 0.21875 0  0.09375 0.21875 0  0.125 0.21875 0  0.15625 0.21875 0  0.1875 0.21875 0  0.21875 0.21875 0  0.25 0.21875 0  0.28125 0.21875 0  0.3125 0.21875 0  0.34375 0.21875 0  0.375 0.21875 0  0.40625 0.21875 0  0.4375 0.21875 0  0.46875 0.21875 0  0.5 0.21875 0  0.53125 0.21875 0  0.5625 0.21875 0  0.59375 0.21875 0  0.625 0.21875 0  0.65625 0.21875 0  0.6875 0.21875 0  0.71875 0.21875 0  0.75 0.21875 0  0.78125 0.21875 0  0.8125 0.21875 0  0.84375 0.21875 0  0.875 0.21875 0  0.90625 0.21875 0  0.9375 0.21875 0  0.96875 0.21875 0  1 0.21875 0  1.03125 0.21875 0  1.0625 0.21875 0  1.09375 0.21875 0  1.125 0.21875 0  1.15625 0.21875 0  1.1875 0.21875 0  1.21875 0.21875 0  1.25 0.21875 0  1.28125 0.21875 0  1.3125 0.21875 0  1.34375 0.21875 0  1.375 0.21875 0  1.40625 0.21875 0  1.4375 0.21875 0  1.46875 0.21875 0  1.5 0.21875 0  0 0.25 0  0.03125 0.25 0  0.0625 0.25 0  0.09375 0.25 0  0.125 0.25 0  0.15625 0.25 0  0.1875 0.25 0  0.21875 0.25 0  0.25 0.25 0  0.28125 0.25 0  0.3125 0.25 0  0.34375 0.25 0  0.375 0.25 0  0.40625 0.25 0  0.4375 0.25 0  0.46875 0.25 0  0.5 0.25 0  0.53125 0.25 0  0.5625 0.25 0  0.59375 0.25 0  0.625 0.25 0  0.65625 0.25 0  0.6875 0.25 0  0.71875 0.25 0  0.75 0.25 0  0.78125 0.25 0  0.8125 0.25 0  0.84375 0.25 0  0.875 0.25 0  0.90625 0.25 0  0.9375 0.25 0  0.96875 0.25 0  1 0.25 0  1.03125 0.25 0  1.0625 0.25 0  1.09375 0.25 0  1.125 0.25 0  1.15625 0.25 0  1.1875 0.25 0  1.21875 0.25 0  1.25 0.25 0  1.28125 0.25 0  1.3125 0.25 0  1.34375 0.25 0  1.375 0.25 0  1.40625 0.25 0  1.4375 0.25 0  1.46875 0.25 0  1.5 0.25 0  0 0.28125 0  0.03125 0.28125 0  0.0625 0.28125 0  0.09375 0.28125 0  0.125 0.28125 0  0.15625 0.28125 0  0.1875 0.28125 0  0.21875 0.28125 0  0.25 0.28125 0  0.28125 0.28125 0  0.3125 0.28125 0  0.34375 0.28125 0  0.375 0.28125 0  0.40625 0.28125 0  0.4375 0.28125 0  0.46875 0.28125 0  0.5 0.28125 0  0.53125 0.28125 0  0.5625 0.28125 0  0.59375 0.28125 0  0.625 0.28125 0  0.65625 0.28125 0  0.6875 0.28125 0  0.71875 0.28125 0  0.75 0.28125 0  0.78125 0.28125 0  0.8125 0.28125 0  0.84375 0.28125 0  0.875 0.28125 0  0.90625 0.28125 0  0.9375 0.28125 0  0.96875 0.28125 0  1 0.28125 0  1.03125 0.28125 0  1.0625 0.28125 0  1.09375 0.28125 0  1.125 0.28125 0  1.15625 0.28125 0  1.1875 0.28125 0  1.21875 0.28125 0  1.25 0.28125 0  1.28125 0.28125 0  1.3125 0.28125 0  1.34375 0.28125 0  1.375 0.28125 0  1.40625 0.28125 0  1.4375 0.28125 0  1.46875 0.28125 0  1.5 0.28125 0  0 0.3125 0  0.03125 0.3125 0  0.0625 0.3125 0  0.09375 0.3125 0  0.125 0.3125 0  0.15625 0.3125 0  0.1875 0.3125 0  0.21875 0.3125 0  0.25 0.3125 0  0.28125 0.3125 0  0.3125 0.3125 0  0.34375 0.3125 0  0.375 0.3125 0  0.40625 0.3125 0  0.4375 0.3125 0  0.46875 0.3125 0  0.5 0.3125 0  0.53125 0.3125 0  0.5625 0.3125 0  0.59375 0.3125 0  0.625 0.3125 0  0.65625 0.3125 0  0.6875 0.3125 0  0.71875 0.3125 0  0.75 0.3125 0  0.78125 0.3125 0  0.8125 0.3125 0  0.84375 0.3125 0  0.875 0.3125 0  0.90625 0.3125 0  0.9375 0.3125 0  0.96875 0.3125 0  1 0.3125 0  1.03125 0.3125 0  1.0625 0.3125 0  1.09375 0.3125 0  1.125 0.3125 0  1.15625 0.3125 0  1.1875 0.3125 0  1.21875 0.3125 0  1.25 0.3125 0  1.28125 0.3125 0  1.3125 0.3125 0  1.34375 0.3125 0  1.375 0.3125 0  1.40625 0.3125 0  1.4375 0.3125 0  1.46875 0.3125 0  1.5 0.3125 0  0 0.34375 0  0.03125 0.34375 0  0.0625 0.34375 0  0.09375 0.34375 0  0.125 0.34375 0  0.15625 0.34375 0  0.1875 0.34375 0  0.21875 0.34375 0  0.25 0.34375 0  0.28125 0.34375 0  0.3125 0.34375 0  0.34375 0.34375 0  0.375 0.34375 0  0.40625 0.34375 0  0.4375 0.34375 0  0.46875 0.34375 0  0.5 0.34375 0  0.53125 0.34375 0  0.5625 0.34375 0  0.59375 0.34375 0  0.625 0.34375 0  0.65625 0.34375 0  0.6875 0.34375 0  0.71875 0.34375 0  0.75 0.34375 0  0.78125 0.34375 0  0.8125 0.34375 0  0.84375 0.34375 0  0.875 0.34375 0  0.90625 0.34375 0  0.9375 0.34375 0  0.96875 0.34375 0  1 0.34375 0  1.03125 0.34375 0  1.0625 0.34375 0  1.09375 0.34375 0  1.125 0.34375 0  1.15625 0.34375 0  1.1875 0.34375 0  1.21875 0.34375 0  1.25 0.34375 0  1.28125 0.34375 0  1.3125 0.34375 0  1.34375 0.34375 0  1.375 0.34375 0  1
[...]
<PointData  Scalars="f_49"> 
<DataArray  type="Float64"  Name="f_49"  format="ascii">8.0046314773956309e-02  7.8226644847286461e-02  7.3773661756097939e-02  6.9770904337647058e-02  6.5944160130307392e-02  6.2235670370796567e-02  5.8626136938189112e-02  5.5096261797868029e-02  5.1632237363157016e-02  4.8223976225057384e-02  4.4864134547043584e-02  4.1547199397411090e-02  3.8268738663023522e-02  3.5024855711298278e-02  3.1811847541125336e-02  2.8626019937451296e-02  2.5463607825130907e-02  2.2320761092565346e-02  1.9193571685422489e-02  1.6078128809350927e-02  1.2970593923487331e-02  9.8672872164219556e-03  6.7647748043068194e-03  3.6599434354202980e-03  5.5004912062552101e-04  -2.5672709101681622e-03  -5.6940272775443824e-03  -8.8319449239436781e-03  -1.1982556087719172e-02  -1.5147304529907467e-02  -1.8327645350306891e-02  -2.1525127777617042e-02  -2.4741453410379817e-02  -2.7978507967910987e-02  -3.1238370446232653e-02  -3.4523309680616489e-02  -3.7835788650878263e-02  -4.1178512911661351e-02  -4.4554564691481648e-02  -4.7967753632645056e-02  -5.1422971171815067e-02  -5.4927436646861588e-02  -5.8489900364422372e-02  -6.2123183828393443e-02  -6.5854172446772843e-02  -6.9620504932179153e-02  -7.3498103520582225e-02  -7.9601869237515957e-02  -7.9737308675014412e-02  8.0907764462944912e-02  8.0141949345676644e-02  7.5125168639290779e-02  7.1033187936590095e-02  6.7140399717918436e-02  6.3355009287294040e-02  5.9672275580253668e-02  5.6073167156732134e-02  5.2543026490271288e-02  4.9070812998642480e-02  4.5648368062622520e-02  4.2269585924738465e-02  3.8929654867349742e-02  3.5624461346798988e-02  3.2350193451958775e-02  2.9103112581767898e-02  2.5879444798696076e-02  2.2675349383936803e-02  1.9486936538649198e-02  1.6310318060399117e-02  1.3141680819417282e-02  9.9773735681282019e-03  6.8139953301448140e-03  3.6484710344921447e-03  4.7809965651467114e-04  -2.6994365280527924e-03  -5.8861058979281199e-03  -9.0836000171711732e-03  -1.2293432207622372e-02  -1.5517045360587236e-02  -1.8755912531392877e-02  -2.2011617981181272e-02  -2.5285912417543983e-02  -2.8580742591563929e-02  -3.1898261897539706e-02  -3.5240835959365772e-02  -3.8611068227856545e-02  -4.2011887140222470e-02  -4.5446745725814579e-02  -4.8920031066522887e-02  -5.2437598521782466e-02  -5.6007803958822620e-02  -5.9641804675008375e-02  -6.3354783521561528e-02  -6.7175204900161475e-02  -7.1083782491935282e-02  -7.5181352277105373e-02  -8.0634691156342905e-02  -8.1416354163145438e-02  8.2275218388351223e-02  8.1539068601607798e-02  7.6248311783661385e-02  7.2138195061372437e-02  6.8197811099955610e-02  6.4346075182069432e-02  6.0598972406670289e-02  5.6938450800322643e-02  5.3349212374177099e-02  4.9819735908093910e-02  4.6341258081349666e-02  4.2907176358990995e-02  3.9512335524913178e-02  3.6152416775688680e-02  3.2823500844071811e-02  2.9521800506408975e-02  2.6243521468000384e-02  2.2984810133449992e-02  1.9741759054737906e-02  1.6510452978464863e-02  1.3287044896987576e-02  1.0067851908120977e-02  6.8494570738054147e-03  3.6287990767471740e-03  4.0322988173395534e-04  -2.8294754415767232e-03  -6.0711627412641791e-03  -9.3233898008925845e-03  -1.2587546526323970e-02  -1.5864981523771995e-02  -1.9157114449659268e-02  -2.2465520748728811e-02  -2.5791984425398803e-02  -2.9138522805691364e-02  -3.2507394648062876e-02  -3.5901110397067261e-02  -3.9322474689815798e-02  -4.2774705514569057e-02  -4.6261682539075213e-02  -4.9788415082146945e-02  -5.3361608569008324e-02  -5.6990780528362435e-02  -6.0688140083660441e-02  -6.4470812712446660e-02  -6.8365281607880718e-02  -7.2350696073392617e-02  -7.6515908711476552e-02  -8.1928711611049351e-02  -8.2710373327442230e-02  8.3409249073882252e-02  8.2654934974822944e-02  7.7315235444010977e-02  7.3172410484027228e-02  6.9183618636579000e-02  6.5274084114383568e-02  6.1470679895055162e-02  5.7754604839039929e-02  5.4110474363126645e-02  5.0527038155492171e-02  4.6995315393917603e-02  4.3508482962143234e-02  4.0061215588553939e-02  3.6649091598845066e-02  3.3268139575183882e-02  2.9914547849607370e-02  2.6584502820786997e-02  2.3274118496617573e-02  1.9979430091657587e-02  1.6696436856074182e-02  1.3421185760182398e-02  1.0149886598578947e-02  6.8790420891010444e-03  3.6055677111966121e-03  3.2687115706619578e-04  -2.9591341169713467e-03  -6.2540911696701736e-03  -9.5593262155662679e-03  -1.2876010567507331e-02  -1.6205322767785892e-02  -1.9548582206988616e-02  -2.2907339235784873e-02  -2.6283421149229214e-02  -2.9678944355644683e-02  -3.3096310552003051e-02  -3.6538210848571305e-02  -4.0007670811998658e-02  -4.3508181338987782e-02  -4.7043961611477843e-02  -5.0620435214909498e-02  -5.4244763343682334e-02  -5.7926857914450708e-02  -6.1679008397408183e-02  -6.5517489016766267e-02  -6.9466633020893356e-02  -7.3497748786093803e-02  -7.7689974113472476e-02  -8.3091000541488783e-02  -8.3867827025745467e-02  8.4396200335131968e-02  8.3634538488673346e-02  7.8269591230511359e-02  7.4091259412728330e-02  7.0062972116330766e-02  6.6107310113590986e-02  6.2257041104579906e-02  5.8492816107423025e-02  5.4800079362504313e-02  5.1168171224473188e-02  4.7588103395349676e-02  4.4053053388113106e-02  4.0557681194388767e-02  3.7097567576474637e-02  3.3668758987280903e-02  3.0267463863181420e-02  2.6889872645099615e-02  2.3532069029635692e-02  2.0190009660213962e-02  1.6859562796354522e-02  1.3536603363141216e-02  1.0217158602900681e-02  6.8975855906667815e-03  3.5747441586863231e-03  2.4611620542138346e-04  -3.0901730504603480e-03  -6.4354496314428071e-03  -9.7906800946086052e-03  -1.3156704087491092e-02  -1.6534452187532755e-02  -1.9925107581307021e-02  -2.3330196593205160e-02  -2.6751616048506031e-02  -3.0191618885295191e-02  -3.3652785000887024e-02  -3.7138006650180605e-02  -4.0650522778776094e-02  -4.4194044504075283e-02  -4.7773011113175522e-02  -5.1393042499191986e-02  -5.5061412797850151e-02  -5.8787929150152095e-02  -6.2584322889955926e-02  -6.6465513069575877e-02  -7.0453211556079087e-02  -7.4513957033669032e-02  -7.8722848515804814e-02  -8.4122074646327552e-02  -8.4898837141361372e-02  8.5255631640523064e-02  8.4487477206473288e-02  7.9106696997600881e-02  7.4904249982135004e-02  7.0845235808612086e-02  6.6852618127249921e-02  6.2962955662142245e-02  5.9157078904771988e-02  5.5421617181323338e-02  5.1746427645413130e-02  4.8122679093838251e-02  4.4543722088053031e-02  4.1004324739046437e-02  3.7500165313950978e-02  3.4027381338607131e-02  3.0582256677423886e-02  2.7161023987600907e-02  2.3759754053795001e-02  2.0374315209366813e-02  1.7000401975958295e-02  1.3633641630265066e-02  1.0269782563216279e-02  6.9049462370466838e-03  3.5358899117678387e-03  1.6019692063150550e-04  -3.2236874863594603e-03  -6.6166084620172165e-03  -1.0019000450029141e-02  -1.3431235940284461e-02  -1.6853924576683280e-02  -2.0288103819329273e-02  -2.3735313378698785e-02  -2.7197580901940376e-02  -3.0677359625478740e-02  -3.4177457616591807e-02  -3.7700992994951769e-02  -4.1251408787363733e-02  -4.4832584864862551e-02  -4.8449078357028906e-02  -5.2106547344537055e-02  -5.5812166473811382e-02  -5.9575410237746304e-02  -6.3407280268175728e-02  -6.7321443211162429e-02  -7.1337698746521405e-02  -7.5419622358747246e-02  -7.9641209317375866e-02  -8.5040823931937445e-02  -8.5817209045200460e-02  8.6005149949143364e-02  8.5232313474758736e-02  7.9840635394777190e-02  7.5619072480710328e-02  7.1535003245692258e-02  6.7512258612656667e-02  6.3589311083609740e-02  5.9747638193885969e-02  5.5974877039918748e-02  5.2261302174179528e-02  4.8598383987822368e-02  4.4979736746254544e-02  4.1400314460085838e-02  3.7855967405052232e-02  3.4342991220367325e-02  3.0857805716709524e-02  2.7396737499742481e-02  2.3955879650066854e-02  2.0531018055466529e-02  1.7117635111238486e-02  1.3711019554684949e-02  1.0306507761496849e-02  6.8998487921624876e-03  3.4876194682901479e-03  6.7543768898095977e-05  -3.3614430314516728e-03  -6.7994537021280653e-03  -1.0246144435099615e-02  -1.3701255001698066e-02  -1.7165019109506800e-02  -2.0638369099949004e-02  -2.4122955709961150e-02  -2.7621051856766880e-02  -3.1135412627294738e-02  -3.4669146104515415e-02  -3.8225631503232847e-02  -4.1808513304627565e-02  -4.5421801138438390e-02  -4.9070098376373238e-02  -5.2759005642087929e-02  -5.6495499128301839e-02  -6.0288657522808584e-02  -6.4148805926175362e-02  -6.8088622290562020e-02  -7.2126602769283149e-02  -7.6224448344627702e-02  -8.0455886739219606e-02  -8.5856060427272923e-02  -8.6632006963514460e-02  8.6657533994700053e-02  8.5881129470102277e-02  8.0480509881691989e-02  7.6243272083468913e-02  7.2138741272201212e-02  6.8091016904228932e-02  6.4139812618689895e-02  6.0267390371802836e-02  5.6462089670102071e-02  5.2714578540788190e-02  4.9016684501541806e-02  4.5362302002019073e-02  4.1746614458064407e-02  3.8165695901764898e-02  3.4616056238864983e-02  3.1094313917871579e-02  2.7596955556344390e-02  2.4120155719809647e-02  2.0659649620492476e-02  1.7210682507631161e-02  1.3768097019305769e-02  1.0326626760964398e-02  6.8814276673603257e-03  3.4287559432705406e-03  -3.3467648940251175e-05  -3.5055354384648115e-03  -6.9864204495418570e-03  -1.0474637609220785e-02  -1.3969100755266986e-02  -1.7469667553258971e-02  -2.0977302601568774e-02  -2.4493962725762257e-02  -2.8022354590870407e-02  -3.1565681260995258e-02  -3.5127443040038793e-02  -3.8711321442515136e-02  -4.2321161829344624e-02  -4.5961072258330064e-02  -4.9635652257533858e-02  -5.3350391018452098e-02  -5.7112030149881809e-02  -6.0929266588726293e-02  -6.4811857640531684e-02  -6.8771740405359383e-02  -7.2826512703606572e-02  -7.6936588556900554e-02  -8.1175680426491648e-02  -8.6576248467616579e-02  -8.7351496337624387e-02  8.7222234807531870e-02  8.6443014304078150e-02  8.1034522293811903e-02  7.6784161219528954e-02  7.2662595876870045e-02  6.8593823385952699e-02  6.4618544880794132e-02  6.0719655372725084e-02  5.6885978087817639e-02  5.3108551733322309e-02  4.9379530451036012e-02  4.5693070488489550e-02  4.2044599696898506e-02  3.8430440453592514e-02  3.4847356793687778e-02  3.1292225613317508e-02  2.7761773338717512e-02  2.4252347551302001e-02  2.0759708775916416e-02  1.7278876401542367e-02  1.3804133755240125e-02  1.0329338325893467e-02  6.8486835975474693e-03  3.3578380273793932e-03  -1.4500117486112885e-04  -3.6588568331473812e-03  -7.1808699998113712e-03  -1.0707872921140522e-02  -1.4237767036303276e-02  -1.7770175860153524e-02  -2.1306414124970412e-02  -2.4849088163462294e-02  -2.8401617504625949e-02  -3.1967837894437474e-02  -3.5551738506895046e-02  -3.9157332838021891e-02  -4.2788652818279649e-02  -4.6449866524981141e-02  -5.0145523774941442e-02  -5.3880964582206613e-02  -5.7662683578058489e-02  -6.1499028999287754e-02  -6.5399291899815498e-02  -6.9374849003132982e-02  -7.3442654475827068e-02  -7.7562176578728437e-02  -8.1807182715182725e-02  -8.7207970022815648e-02  -8.7982315262055660e-02  8.7706464127911735e-02  8.6924941758924290e-02  8.1509387331609853e-02  7.7247924900026271e-02  7.3112027004352778e-02  6.9025434616203626e-02  6.5029636462160131e-02  6.1107975411150567e-02  5.7249629068947594e-02  5.3445945466294609e-02  4.9689338957610733e-02  4.5974192169480836e-02  4.2296160428615434e-02  3.8651808028553072e-02  3.5038168652254939e-02  3.1452423611529293e-02  2.7891625530970115e-02  2.4352423892258900e-02  2.0830749861979518e-02  1.7321490971438459e-02  1.3818293189216603e-02  1.0313761201696048e-02  6.8004954568081852e-03  3.2730398294310062e-03  -2.7002276905323860e-04  -3.8255125194338888e-03  -7.3875076217289268e-03  -1.0950365788741017e-02  -1.4510923135170616e-02  -1.8069040553140660e-02  -2.1627015640965183e-02  -2.5188647900789410e-02  -2.8758431749445843e-02  -3.2341024299966860e-02  -3.5940966018822858e-02  -3.9562588145006447e-02  -4.3210056856190927e-02  -4.6887536127680013e-02  -5.0599467472867546e-02  -5.4351001072542530e-02  -5.8148372574829597e-02  -6.1999608053091869e-02  -6.5913607049535056e-02  -6.9901307066017188e-02  -7.3979177102148644e-02  -7.8105955981975006e-02  -8.2355474398360148e-02  -8.7756290821725536e-02  -8.8529628579038691e-02  8.8115904669675532e-02  8.7332465064912962e-02  8.1910632223456376e-02  7.7639781874006414e-02  7.3491823706089796e-02  6.9390189223299301e-02  6.5376979835378865e-02  6.1435844430962019e-02  5.7556216184756454e-02  5.3729669620024997e-02  4.9948806321080910e-02  4.6208181175213088e-02  4.2503627518284910e-02  3.8831910375638198e-02  3.5190310519509133e-02  3.1576324445037274e-02  2.7987400755563729e-02  2.4420644064993322e-02  2.0872391633380047e-02  1.7337653049132231e-02  1.3809497072300012e-02  1.0278815760262818e-02  6.7355394348944204e-03  3.1719426585607893e-03  -4.1286690905688821e-04  -4.0116263694266827e-03  -7.6130769924489935e-03  -1.1208044348257657e-02  -1.4792755933887685e-02  -1.8368481878448011e-02  -2.1939625364521730e-02  -2.5511929030137631e-02  -2.9091334066812406e-02  -3.2683426353938616e-02  -3.6293258078904073e-02  -3.9925375291038817e-02  -4.3583961471116678e-02  -4.7273071120069066e-02  -5.0996955660363330e-02  -5.4760522735051859e-02  -5.8569728443822189e-02  -6.2432290158955336e-02  -6.6356765350340588e-02  -7.0353731445363152e-02  -7.4439274077443066e-02  -7.8571552994422672e-02  -8.2824447193542969e-02  -8.8225105807094015e-02  -8.8997416866526846e-02  8.8455135783965660e-02  8.7670098684929934e-02  8.2242812586813790e-02  7.7964119076582947e-02  7.3806124812681201e-02  6.9691947378792932e-02  6.5664155855772857e-02  6.1706600425044958e-02  5.7808884529075198e-02  5.3962727936375673e-02  5.0160846126848652e-02  4.6397895062165920e-02  4.2669809556565907e-02  3.8973475911762777e-02  3.5306345165597816e-02  3.1666172915982504e-02  2.8050807524653810e-02  2.4457930390020598e-02  2.0884591262937388e-02  1.7326422326816904e-02  1.3776322331424838e-02  1.0223112140961388e-02  6.6522807150604813e-03  3.0512242337172105e-03  -5.8024390569892507e-04  -4.2267069973711286e-03  -7.8672942405620203e-03  -1.1488292011637428e-02  -1.5087272818123625e-02  -1.8669414391318685e-02  -2.2242945002446862e-02  -2.5816347603021223e-02  -2.9397187881259612e-02  -3.2991851966275451e-02  -3.6605670619164463e-02  -4.0243168542392911e-02  -4.3908348064841701e-02  -4.7605004045014825e-02  -5.1337094181891176e-02  -5.5109221104701060e-02  -5.8927034712927949e-02  -6.2797948271180473e-02  -6.6730210380479466e-02  -7.0734092364744691e-02  -7.4825366773293989e-02  -7.8961727448619068e-02  -8.3217080326439263e-02  -8.8617425930295854e-02  -8.9388762816946216e-02  8.8727870800995090e-02  8.7941529472219157e-02  8.2509669410988432e-02  7.8224590415238077e-02  7.4058447380659143e-02  6.9934068347256018e-02  6.5894371134964255e-02  6.1923329356732983e-02  5.8010646585211476e-02  5.4148117877344568e-02  5.0328503163670678e-02  4.6546481901424852e-02  4.2797997870458598e-02  3.9079945560623351e-02  3.5389808828831949e-02  3.1725449123977179e-02  2.8084978882164966e-02  2.4466620761364948e-02  2.0868372808331054e-02  1.7287214102442348e-02  1.3716938236822273e-02  1.0144718080078519e-02  6.5490411662585193e-03  2.9060785296214581e-03  -7.8314542716244448e-04  -4.4858191713621652e-03  -8.1636649032829269e-03  -1.1798939606424199e-02  -1.5396304447141908e-02  -1.8969384406785174e-02  -2.2532214417214671e-02  -2.6096324718788540e-02  -2.9670499405843612e-02  -3.3261357028352416e-02  -3.6874002462154533e-02  -4.0512556485373281e-02  -4.4180573129450534e-02  -4.7881412011384142e-02  -5.1618629495063240e-02  -5.5396465167672812e-02  -5.9220241234544377e-02  -6.3097072794136441e-02  -6.7034927985400464e-02  -7.1043814892705975e-02  -7.5139248335687303e-02  -7.9278549010389388e-02  -8.3535630646804332e-02  -8.8935569666152764e-02  -8.9706039142825503e-02  8.8937078363794358e-02  8.8149719480207153e-02  8.2714217222558922e-02  7.8424171623841119e-02  7.4251700941607365e-02  7.0119387126823085e-02  6.6070398843682945e-02  6.2088777622147109e-02  5.8164275050903047e-02  5.4288708393791470e-02  5.0454826203591110e-02  4.6657264375688977e-02  4.2891887966923156e-02  3.9155477528179196e-02  3.5445375193561619e-02  3.1759302245601646e-02  2.8095307794643087e-02  2.4451793582696568e-02  2.0827522552167806e-02  1.7221320272423901e-02  1.3629631339308407e-02  1.0040854837104830e-02  6.4242667654627397e-03  2.7289574630811088e-03  -1.0398444733308219e-03  -4.8116927458917626e-03  -8.5183140250250627e-03  -1.2144111832253682e-02  -1.5714888625541053e-02  -1.9258998978641476e-02  -2.2796972658280481e-02  -2.6342096921368539e-02  -2.9902899238017450e-02  -3.3485100970329557e-02  -3.7092833518075734e-02  -4.0729353271025184e-02  -4.4397495601754690e-02  -4.8100034353886607e-02  -5.1840048537793296e-02  -5.5621385303498971e-02  -5.9449039566283224e-02  -6.3329848231026761e-02  -6.7271533764906410e-02  -7.1283883822518226e-02  -7.5382207005261243e-02  -7.9523533969175081e-02  -8.3781773781474611e-02  -8.9181288608353532e-02  -8.9951040623801923e-02  8.9085041260829945e-02  8.8296953570245126e-02  8.2858787340736761e-02  7.8565182560649358e-02  7.4388181632461414e-02  7.0250177763352378e-02  6.6194509616208583e-02  6.2205250896114082e-02  5.8272168656872417e-02  5.4387071275142973e-02  5.0542665056954275e-02  4.6733505277026660e-02  4.2955326235138917e-02  3.9204711854995689e-02  3.5478721886656919e-02  3.1774690786559687e-02  2.8090174228533337e-02  2.4423049001965388e-02  2.0771836611339814e-02  1.7136218720458982e-02  1.3515971733682746e-02  9.9075704156633242e-03  6.2758949626445419e-03  2.5071730983356865e-03  -1.3749998298574874e-03  -5.2296610338025675e-03  -8.9409099439309251e-03  -1.2512686844720075e-02  -1.6022618706726294e-02  -1.9517082396830115e-02  -2.3018956425948985e-02  -2.6539140132420740e-02  -3.0083265135534658e-02  -3.3654720685978801e-02  -3.7255940009174933e-02  -4.0888970796580916e-02  -4.4555781271130482e-02  -4.8258510426653550e-02  -5.1999761075835725e-02  -5.5783014343247936e-02  -5.9612976862851004e-02  -6.3496252525906127e-02  -6.7440367911854038e-02  -7.1454940561368030e-02  -7.5555127415528445e-02  -7.9697749385148578e-02  -8.3956706730917791e-02  -8.9355854084621503e-02  -9.0125072726915362e-02  8.9173383901719416e-02  8.8384860647195362e-02  8.2945045847286791e-02  7.8649290573679920e-02  7.4469554425690337e-02  7.0328109553850673e-02  6.6268396952702965e-02  6.2274503401930387e-02  5.8336197542825145e-02  5.4445271564038791e-02  5.0594390069320094e-02  4.6778034585797171e-02  4.2991820051485836e-02  3.9232144178737792e-02  3.5495779280475155e-02  3.1779615986982430e-02  2.8080522006555794e-02  2.4395319840072986e-02  2.0720959004620215e-02  1.7054976125311230e-02  1.3395753667911904e-02  9.7479496325574167e-03  6.0971459156887167e-03  2.2324722670185163e-03  -1.7758654203958871e-03  -5.7258281794734895e-03  -9.4059831730934542e-03  -1.2854264714766693e-02  -1.6271812107846215e-02  -1.9707149945307711e-02  -2.3172274680322544e-02  -2.6669499115024298e-02  -3.0199154679447445e-02  -3.3761530652019742e-02  -3.7357209502843408e-02  -4.0987087334162502e-02  -4.4652381863347169e-02  -4.8354720595597180e-02  -5.2096343440358142e-02  -5.5880464969835925e-02  -5.9711589939080739e-02  -6.3596164642283542e-02  -6.7541588182714885e-02  -7.1557369105152271e-02  -7.5658573375597088e-02  -7.9801893399126661e-02  -8.4061224218046890e-02  -8.9460121310054305e-02  -9.0229015926102787e-02  8.9203084819707859e-02  8.8414422751181027e-02  8.2973998892450551e-02  7.8677505109642651e-02  7.4496831736682728e-02  7.0354204374779572e-02  6.6293107199991860e-02  6.2297632521272815e-02  5.8357550436393520e-02  5.4464648427286946e-02  5.0611576623251879e-02  4.6792790028677124e-02  4.3003859556676766e-02  3.9241112631360223e-02  3.5501209718943438e-02  3.1780860853320624e-02  2.8076633611930080e-02  2.4384832090889666e-02  2.0701435494182883e-02  1.7022089087854721e-02  1.3342208750774749e-02  9.6636051573462250e-03  6.0041992168718243e-03  2.0094491532690289e-03  -2.0142074955620129e-03  -6.0056732931811855e-03  -9.7657593285755580e-03  -1.3045203122408996e-02  -1.6382750879273576e-02  -1.97