<?xml version="1.0"?>
<VTKFile type="UnstructuredGrid"  version="0.1"  >
<UnstructuredGrid>
<Piece  NumberOfPoints="1617" NumberOfCells="3072">
<Points>
<DataArray  type="Float64"  NumberOfComponents="3"  format="ascii">0 0 0  0.03125 0 0  0.0625 0 0  0.09375 0 0  0.125 0 0  0.15625 0 0  0.1875 0 0  0.21875 0 0  0.25 0 0  0.28125 0 0  0.3125 0 0  0.34375 0 0  0.375 0 0  0.40625 0 0  0.4375 0 0  0.46875 0 0  0.5 0 0  0.53125 0 0  0.5625 0 0  0.59375 0 0  0.625 0 0  0.65625 0 0  0.6875 0 0  0.71875 0 0  0.75 0 0  0.78125 0 0  0.8125 0 0  0.84375 0 0  0.875 0 0  0.90625 0 0  0.9375 0 0  0.96875 0 0  1 0 0  1.03125 0 0  1.0625 0 0  1.09375 0 0  1.125 0 0  1.15625 0 0  1.1875 0 0  1.21875 0 0  1.25 0 0  1.28125 0 0  1.3125 0 0  1.34375 0 0  1.375 0 0  1.40625 0 0  1.4375 0 0  1.46875 0 0  1.5 0 0  0 0.03125 0  0.03125 0.03125 0  0.0625 0.03125 0  0.09375 0.03125 0  0.125 0.03125 0  0.15625 0.03125 0  0.1875 0.03125 0  0.21875 0.03125 0  0.25 0.03125 0  0.28125 0.03125 0  0.3125 0.03125 0  0.34375 0.03125 0  0.375 0.03125 0  0.40625 0.03125 0  0.4375 0.03125 0  0.46875 0.03125 0  0.5 0.03125 0  0.53125 0.03125 0  0.5625 0.03125 0  0.59375 0.03125 0  0.625 0.03125 0  0.65625 0.03125 0  0.6875 0.03125 0  0.71875 0.03125 0  0.75 0.03125 0  0.78125 0.03125 0  0.8125 0.03125 0  0.84375 0.03125 0  0.875 0.03125 0  0.90625 0.03125 0  0.9375 0.03125 0  0.96875 0.03125 0  1 0.03125 0  1.03125 0.03125 0  1.0625 0.03125 0  1.09375 0.03125 0  1.125 0.03125 0  1.15625 0.03125 0  1.1875 0.03125 0  1.21875 0.03125 0  1.25 0.03125 0  1.28125 0.03125 0  1.3125 0.03125 0  1.34375 0.03125 0  1.375 0.03125 0  1.40625 0.03125 0  1.4375 0.03125 0  1.46875 0.03125 0  1.5 0.03125 0  0 0.0625 0  0.03125 0.0625 0  0.0625 0.0625 0  0.09375 0.0625 0  0.125 0.0625 0  0.15625 0.0625 0  0.1875 0.0625 0  0.21875 0.0625 0  0.25 0.0625 0  0.28125 0.0625 0  0.3125 0.0625 0  0.34375 0.0625 0  0.375 0.0625 0  0.40625 0.0625 0  0.4375 0.0625 0  0.46875 0.0625 0  0.5 0.0625 0  0.53125 0.0625 0  0.5625 0.0625 0  0.59375 0.0625 0  0.625 0.0625 0  0.65625 0.0625 0  0.6875 0.0625 0  0.71875 0.0625 0  0.75 0.0625 0  0.78125 0.0625 0  0.8125 0.0625 0  0.84375 0.0625 0  0.875 0.0625 0  0.90625 0.0625 0  0.9375 0.0625 0  0.96875 0.0625 0  1 0.0625 0  1.03125 0.0625 0  1.0625 0.0625 0  1.09375 0.0625 0  1.125 0.0625 0  1.15625 0.0625 0  1.1875 0.0625 0  1.21875 0.0625 0  1.25 0.0625 0  1.28125 0.0625 0  1.3125 0.0625 0  1.34375 0.0625 0  1.375 0.0625 0  1.40625 0.0625 0  1.4375 0.0625 0  1.46875 0.0625 0  1.5 0.0625 0  0 0.09375 0  0.03125 0.09375 0  0.0625 0.09375 0  0.09375 0.09375 0  0.125 0.09375 0  0.15625 0.09375 0  0.1875 0.09375 0  0.21875 0.09375 0  0.25 0.09375 0  0.28125 0.09375 0  0.3125 0.09375 0  0.34375 0.09375 0  0.375 0.09375 0  0.40625 0.09375 0  0.4375 0.09375 0  0.46875 0.09375 0  0.5 0.09375 0  0.53125 0.09375 0  0.5625 0.09375 0  0.59375 0.09375 0  0.625 0.09375 0  0.65625 0.09375 0  0.6875 0.09375 0  0.71875 0.09375 0  0.75 0.09375 0  0.78125 0.09375 0  0.8125 0.09375 0  0.84375 0.09375 0  0.875 0.09375 0  0.90625 0.09375 0  0.9375 0.09375 0  0.96875 0.09375 0  1 0.09375 0  1.03125 0.09375 0  1.0625 0.09375 0  1.09375 0.09375 0  1.125 0.09375 0  1.15625 0.09375 0  1.1875 0.09375 0  1.21875 0.09375 0  1.25 0.09375 0  1.28125 0.09375 0  1.3125 0.09375 0  1.34375 0.09375 0  1.375 0.09375 0  1.40625 0.09375 0  1.4375 0.09375 0  1.46875 0.09375 0  1.5 0.09375 0  0 0.125 0  0.03125 0.125 0  0.0625 0.125 0  0.09375 0.125 0  0.125 0.125 0  0.15625 0.125 0  0.1875 0.125 0  0.21875 0.125 0  0.25 0.125 0  0.28125 0.125 0  0.3125 0.125 0  0.34375 0.125 0  0.375 0.125 0  0.40625 0.125 0  0.4375 0.125 0  0.46875 0.125 0  0.5 0.125 0  0.53125 0.125 0  0.5625 0.125 0  0.59375 0.125 0  0.625 0.125 0  0.65625 0.125 0  0.6875 0.125 0  0.71875 0.125 0  0.75 0.125 0  0.78125 0.125 0  0.8125 0.125 0  0.84375 0.125 0  0.875 0.125 0  0.90625 0.125 0  0.9375 0.125 0  0.96875 0.125 0  1 0.125 0  1.03125 0.125 0  1.0625 0.125 0  1.09375 0.125 0  1.125 0.125 0  1.15625 0.125 0  1.1875 0.125 0  1.21875 0.125 0  1.25 0.125 0  1.28125 0.125 0  1.3125 0.125 0  1.34375 0.125 0  1.375 0.125 0  1.40625 0.125 0  1.4375 0.125 0  1.46875 0.125 0  1.5 0.125 0  0 0.15625 0  0.03125 0.15625 0  0.0625 0.15625 0  0.09375 0.15625 0  0.125 0.15625 0  0.15625 0.15625 0  0.1875 0.15625 0  0.21875 0.15625 0  0.25 0.15625 0  0.28125 0.15625 0  0.3125 0.15625 0  0.34375 0.15625 0  0.375 0.15625 0  0.40625 0.15625 0  0.4375 0.15625 0  0.46875 0.15625 0  0.5 0.15625 0  0.53125 0.15625 0  0.5625 0.15625 0  0.59375 0.15625 0  0.625 0.15625 0  0.65625 0.15625 0  0.6875 0.15625 0  0.71875 0.15625 0  0.75 0.15625 0  0.78125 0.15625 0  0.8125 0.15625 0  0.84375 0.15625 0  0.875 0.15625 0  0.90625 0.15625 0  0.9375 0.15625 0  0.96875 0.15625 0  1 0.15625 0  1.03125 0.15625 0  1.0625 0.15625 0  1.09375 0.15625 0  1.125 0.15625 0  1.15625 0.15625 0  1.1875 0.15625 0  1.21875 0.15625 0  1.25 0.15625 0  1.28125 0.15625 0  1.3125 0.15625 0  1.34375 0.15625 0  1.375 0.15625 0  1.40625 0.15625 0  1.4375 0.15625 0  1.46875 0.15625 0  1.5 0.15625 0  0 0.1875 0  0.03125 0.1875 0  0.0625 0.1875 0  0.09375 0.1875 0  0.125 0.1875 0  0.15625 0.1875 0  0.1875 0.1875 0  0.21875 0.1875 0  0.25 0.1875 0  0.28125 0.1875 0  0.3125 0.1875 0  0.34375 0.1875 0  0.375 0.1875 0  0.40625 0.1875 0  0.4375 0.1875 0  0.46875 0.1875 0  0.5 0.1875 0  0.53125 0.1875 0  0.5625 0.1875 0  0.59375 0.1875 0  0.625 0.1875 0  0.65625 0.1875 0  0.6875 0.1875 0  0.71875 0.1875 0  0.75 0.1875 0  0.78125 0.1875 0  0.8125 0.1875 0  0.84375 0.1875 0  0.875 0.1875 0  0.90625 0.1875 0  0.9375 0.1875 0  0.96875 0.1875 0  1 0.1875 0  1.03125 0.1875 0  1.0625 0.1875 0  1.09375 0.1875 0  1.125 0.1875 0  1.15625 0.1875 0  1.1875 0.1875 0  1.21875 0.1875 0  1.25 0.1875 0  1.28125 0.1875 0  1.3125 0.1875 0  1.34375 0.1875 0  1.375 0.1875 0  1.40625 0.1875 0  1.4375 0.1875 0  1.46875 0.1875 0  1.5 0.1875 0  0 0.21875 0  0.03125 0.21875 0  0.0625 0.21875 0  0.09375 0.21875 0  0.125 0.21875 0  0.15625 0.21875 0  0.1875 0.21875 0  0.21875 0.21875 0  0.25 0.21875 0  0.28125 0.21875 0  0.3125 0.21875 0  0.34375 0.21875 0  0.375 0.21875 0  0.40625 0.21875 0  0.4375 0.21875 0  0.46875 0.21875 0  0.5 0.21875 0  0.53125 0.21875 0  0.5625 0.21875 0  0.59375 0.21875 0  0.625 0.21875 0  0.65625 0.21875 0  0.6875 0.21875 0  0.71875 0.21875 0  0.75 0.21875 0  0.78125 0.21875 0  0.8125 0.21875 0  0.84375 0.21875 0  0.875 0.21875 0  0.90625 0.21875 0  0.9375 0.21875 0  0.96875 0.21875 0  1 0.21875 0  1.03125 0.21875 0  1.0625 0.21875 0  1.09375 0.21875 0  1.125 0.21875 0  1.15625 0.21875 0  1.1875 0.21875 0  1.21875 0.21875 0  1.25 0.21875 0  1.28125 0.21875 0  1.3125 0.21875 0  1.34375 0.21875 0  1.375 0.21875 0  1.40625 0.21875 0  1.4375 0.21875 0  1.46875 0.21875 0  1.5 0.21875 0  0 0.25 0  0.03125 0.25 0  0.0625 0.25 0  0.09375 0.25 0  0.125 0.25 0  0.15625 0.25 0  0.1875 0.25 0  0.21875 0.25 0  0.25 0.25 0  0.28125 0.25 0  0.3125 0.25 0  0.34375 0.25 0  0.375 0.25 0  0.40625 0.25 0  0.4375 0.25 0  0.46875 0.25 0  0.5 0.25 0  0.53125 0.25 0  0.5625 0.25 0  0.59375 0.25 0  0.625 0.25 0  0.65625 0.25 0  0.6875 0.25 0  0.71875 0.25 0  0.75 0.25 0  0.78125 0.25 0  0.8125 0.25 0  0.84375 0.25 0  0.875 0.25 0  0.90625 0.25 0  0.9375 0.25 0  0.96875 0.25 0  1 0.25 0  1.03125 0.25 0  1.0625 0.25 0  1.09375 0.25 0  1.125 0.25 0  1.15625 0.25 0  1.1875 0.25 0  1.21875 0.25 0  1.25 0.25 0  1.28125 0.25 0  1.3125 0.25 0  1.34375 0.25 0  1.375 0.25 0  1.40625 0.25 0  1.4375 0.25 0  1.46875 0.25 0  1.5 0.25 0  0 0.28125 0  0.03125 0.28125 0  0.0625 0.28125 0  0.09375 0.28125 0  0.125 0.28125 0  0.15625 0.28125 0  0.1875 0.28125 0  0.21875 0.28125 0  0.25 0.28125 0  0.28125 0.28125 0  0.3125 0.28125 0  0.34375 0.28125 0  0.375 0.28125 0  0.40625 0.28125 0  0.4375 0.28125 0  0.46875 0.28125 0  0.5 0.28125 0  0.53125 0.28125 0  0.5625 0.28125 0  0.59375 0.28125 0  0.625 0.28125 0  0.65625 0.28125 0  0.6875 0.28125 0  0.71875 0.28125 0  0.75 0.28125 0  0.78125 0.28125 0  0.8125 0.28125 0  0.84375 0.28125 0  0.875 0.28125 0  0.90625 0.28125 0  0.9375 0.28125 0  0.96875 0.28125 0  1 0.28125 0  1.03125 0.28125 0  1.0625 0.28125 0  1.09375 0.28125 0  1.125 0.28125 0  1.15625 0.28125 0  1.1875 0.28125 0  1.21875 0.28125 0  1.25 0.28125 0  1.28125 0.28125 0  1.3125 0.28125 0  1.34375 0.28125 0  1.375 0.28125 0  1.40625 0.28125 0  1.4375 0.28125 0  1.46875 0.28125 0  1.5 0.28125 0  0 0.3125 0  0.03125 0.3125 0  0.0625 0.3125 0  0.09375 0.3125 0  0.125 0.3125 0  0.15625 0.3125 0  0.1875 0.3125 0  0.21875 0.3125 0  0.25 0.3125 0  0.28125 0.3125 0  0.3125 0.3125 0  0.34375 0.3125 0  0.375 0.3125 0  0.40625 0.3125 0  0.4375 0.3125 0  0.46875 0.3125 0  0.5 0.3125 0  0.53125 0.3125 0  0.5625 0.3125 0  0.59375 0.3125 0  0.625 0.3125 0  0.65625 0.3125 0  0.6875 0.3125 0  0.71875 0.3125 0  0.75 0.3125 0  0.78125 0.3125 0  0.8125 0.3125 0  0.84375 0.3125 0  0.875 0.3125 0  0.90625 0.3125 0  0.9375 0.3125 0  0.96875 0.3125 0  1 0.3125 0  1.03125 0.3125 0  1.0625 0.3125 0  1.09375 0.3125 0  1.125 0.3125 0  1.15625 0.3125 0  1.1875 0.3125 0  1.21875 0.3125 0  1.25 0.3125 0  1.28125 0.3125 0  1.3125 0.3125 0  1.34375 0.3125 0  1.375 0.3125 0  1.40625 0.3125 0  1.4375 0.3125 0  1.46875 0.3125 0  1.5 0.3125 0  0 0.34375 0  0.03125 0.34375 0  0.0625 0.34375 0  0.09375 0.34375 0  0.125 0.34375 0  0.15625 0.34375 0  0.1875 0.34375 0  0.21875 0.34375 0  0.25 0.34375 0  0.28125 0.34375 0  0.3125 0.34375 0  0.34375 0.34375 0  0.375 0.34375 0  0.40625 0.34375 0  0.4375 0.34375 0  0.46875 0.34375 0  0.5 0.34375 0  0.53125 0.34375 0  0.5625 0.34375 0  0.59375 0.34375 0  0.625 0.34375 0  0.65625 0.34375 0  0.6875 0.34375 0  0.71875 0.34375 0  0.75 0.34375 0  0.78125 0.34375 0  0.8125 0.34375 0  0.84375 0.34375 0  0.875 0.34375 0  0.90625 0.34375 0  0.9375 0.34375 0  0.96875 0.34375 0  1 0.34375 0  1.03125 0.34375 0  1.0625 0.34375 0  1.09375 0.34375 0  1.125 0.34375 0  1.15625 0.34375 0  1.1875 0.34375 0  1.21875 0.34375 0  1.25 0.34375 0  1.28125 0.34375 0  1.3125 0.34375 0  1.34375 0.34375 0  1.375 0.34375 0  1
[...]
<PointData  Scalars="f_49"> 
<DataArray  type="Float64"  Name="f_49"  format="ascii">-8.0034426799704128e-02  -7.8212859993986250e-02  -7.3754982062592567e-02  -6.9753693214053739e-02  -6.5931808036019543e-02  -6.2229446398392708e-02  -5.8625573370039062e-02  -5.5099855701536152e-02  -5.1638214821959252e-02  -4.8230833404849099e-02  -4.4870862905722828e-02  -4.1553266853894252e-02  -3.8273956320851565e-02  -3.5029232709312831e-02  -3.1815482568286445e-02  -2.8629036784022156e-02  -2.5466123905791206e-02  -2.2322875238510519e-02  -1.9195361257631563e-02  -1.6079650580741910e-02  -1.2971886195305709e-02  -9.8683722181068332e-03  -6.7656610846995877e-03  -3.6606281436696647e-03  -5.5052007469814934e-04  2.5670335196449380e-03  5.6940497351571466e-03  8.8322595716009145e-03  1.1983201781457729e-02  1.5148328048982817e-02  1.8329103767985203e-02  2.1527091713408487e-02  2.4744010864950084e-02  2.7981767786313064e-02  3.1242462724732190e-02  3.4528376707764812e-02  3.7841953839361550e-02  4.1185808793969894e-02  4.4562802503775069e-02  4.7976340385359521e-02  5.1430735427995991e-02  5.4932603292832338e-02  5.8490364494311858e-02  6.2117161113101865e-02  6.5841197484782801e-02  6.9601383752082455e-02  7.3476337238782746e-02  7.9590640251845257e-02  7.9725408173603712e-02  -8.0897793746567900e-02  -8.0131965614496065e-02  -7.5107818688129699e-02  -7.1015918452298238e-02  -6.7127261868700230e-02  -6.3347842993809370e-02  -5.9671116960202684e-02  -5.6076762451745761e-02  -5.2549613961896238e-02  -4.9078756712045354e-02  -4.5656481803296838e-02  -4.2277178972440613e-02  -3.8936423791503486e-02  -3.5630343777237804e-02  -3.2355248042106814e-02  -2.9107442467811578e-02  -2.5883157268727749e-02  -2.2678538255169162e-02  -1.9489676283655496e-02  -1.6312663126619460e-02  -1.3143666957399155e-02  -9.9790198777148526e-03  -6.8153065728195411e-03  -3.6494400295902928e-03  -4.7870960155025201e-04  2.6992100219915020e-03  5.8862933000361365e-03  9.0842371312053038e-03  1.2294560354813929e-02  1.5518712563545494e-02  1.8758175654722316e-02  2.2014545614599045e-02  2.5289587919314072e-02  2.8585265787369744e-02  3.1903745815092456e-02  3.5247390962949154e-02  3.8618760216069109e-02  4.2020652362283091e-02  4.5456251087200174e-02  4.8929498462824066e-02  5.2445669744047345e-02  5.6012590611050420e-02  5.9641262126394839e-02  6.3347438319053512e-02  6.7161092926426788e-02  7.1064710121834559e-02  7.5161548001234604e-02  8.0624494946145306e-02  8.1406222945268544e-02  -8.2267134954403506e-02  -8.1531172622815035e-02  -7.6231475021736925e-02  -7.2120470495272468e-02  -6.8183635449158009e-02  -6.4337717789495583e-02  -6.0596952604088712e-02  -5.6941773960370312e-02  -5.3356154157229073e-02  -4.9828552875291053e-02  -4.6350600831759674e-02  -4.2916198251437054e-02  -3.9520612507500795e-02  -3.6159804343545009e-02  -3.2830005934660345e-02  -2.9527494925938411e-02  -2.6248493545302221e-02  -2.2989141756169954e-02  -1.9745516516224203e-02  -1.6513684336870702e-02  -1.3289780156672589e-02  -1.0070104462453386e-02  -6.8512258226788841e-03  -3.6300709490848129e-03  -4.0398251318110942e-04  2.8292711915626745e-03  6.0715407872874681e-03  9.3243876609220566e-03  1.2589205183858554e-02  1.5867346360441695e-02  1.9160237095615380e-02  2.2469461445668994e-02  2.5796814015815978e-02  2.9144322370526766e-02  3.2514248503453108e-02  3.5909084111943074e-02  3.9331564705440809e-02  4.2784744844615800e-02  4.6272197184121074e-02  4.9798459780080968e-02  5.3369669881610175e-02  5.6994894470760699e-02  6.0686348065031058e-02  6.4461952506703057e-02  6.8349897892393194e-02  7.2331157358360126e-02  7.6497039291539101e-02  8.1919957611267094e-02  8.2701675764652219e-02  -8.3401525965511619e-02  -8.2647110892175163e-02  -7.7297747901089300e-02  -7.3153554854242825e-02  -6.9168023572219337e-02  -6.5264278245850932e-02  -6.1467502119495629e-02  -5.7757236392890987e-02  -5.4117221335898295e-02  -5.0536087830287596e-02  -4.7005206454407478e-02  -4.3518257235988941e-02  -4.0070358270666628e-02  -3.6657391997876328e-02  -3.3275558987592185e-02  -2.9921127202921432e-02  -2.6590309402562889e-02  -2.3279219438804108e-02  -1.9983880775134192e-02  -1.6700276599086815e-02  -1.3424436898284268e-02  -1.0152555311943534e-02  -6.8811203532112503e-03  -3.6070360452271780e-03  -3.2770181058351308e-04  2.9589740150206207e-03  6.2546370258060409e-03  9.5606143928066920e-03  1.2878078047370664e-02  1.6208208017775821e-02  1.9552326940092367e-02  2.2911990439252745e-02  2.6289032241971377e-02  2.9685573210847336e-02  3.3104009807392462e-02  3.6547002028367741e-02  4.0017489286061157e-02  4.3518778402107196e-02  4.7054762335577156e-02  5.0630386772130262e-02  5.4252267297062007e-02  5.7929933105711984e-02  6.1675793360349243e-02  6.5507056684709880e-02  6.9449862457408626e-02  7.3477324573819225e-02  7.7670856458788753e-02  8.3082233025337418e-02  8.3859291730908225e-02  -8.4387983973964825e-02  -8.3625949990577889e-02  -7.8250869328767958e-02  -7.4070820839723175e-02  -7.0045611351601242e-02  -6.6095770891187261e-02  -6.2252384949178688e-02  -5.8494350957405405e-02  -5.4806139335822679e-02  -5.1176900871732975e-02  -4.7597964423984215e-02  -4.4063006632519421e-02  -4.0567142291899679e-02  -3.7106271858578628e-02  -3.3676627864257978e-02  -3.0274509311797749e-02  -2.6896140912076628e-02  -2.3537611663133503e-02  -2.0194869983892812e-02  -1.6863770099392550e-02  -1.3540170910671981e-02  -1.0220083881812824e-02  -6.8998522163957118e-03  -3.5763250869173461e-03  -2.4697773923218784e-04  3.0900671869820953e-03  6.4361349563735780e-03  9.7921894042288793e-03  1.3159067132561028e-02  1.6537696819930479e-02  1.9929261816324293e-02  2.3335290700020234e-02  2.6757683303367065e-02  3.0198692569096269e-02  3.3660887002355921e-02  3.7147119316679286e-02  4.0660531576799427e-02  4.4204639149577278e-02  4.7783546460941830e-02  5.1402397537933867e-02  5.5067944005048108e-02  5.8789663033374073e-02  6.2579485744979554e-02  6.6453351839823732e-02  7.0434830111914384e-02  7.4492227563602936e-02  7.8702815552320671e-02  8.4112552510837615e-02  8.4889749560882230e-02  -8.5246694280915622e-02  -8.4477988915677787e-02  -7.9086561540281528e-02  -7.4882079957886358e-02  -7.0826001363138436e-02  -6.6839246539613276e-02  -6.2956675855443914e-02  -5.9157297299499638e-02  -5.5426695112875457e-02  -5.1754484603231954e-02  -4.8132124257885066e-02  -4.4553458084469130e-02  -4.1013714901397165e-02  -3.7508902451205972e-02  -3.4035353985598725e-02  -3.0589451984827133e-02  -2.7167469570102798e-02  -2.3765487246939790e-02  -2.0379367902365195e-02  -1.7004793360487571e-02  -1.3637375126082169e-02  -1.0272845537919177e-02  -6.9073120964725544e-03  -3.5375221979112438e-03  -1.6105467831404905e-04  3.2236442208437304e-03  6.6174143108867784e-03  1.0020682416181400e-02  1.3433813478367980e-02  1.6857411583931683e-02  2.0292511601297573e-02  2.3740653342409511e-02  2.7203865385440392e-02  3.0684598381147031e-02  3.4185645389055712e-02  3.7710080063778670e-02  4.1261242515620376e-02  4.4842810875471276e-02  4.8459004328843244e-02  5.2115010060432572e-02  5.5817499983831474e-02  5.9575658417549880e-02  6.3400744022300934e-02  6.7307502969775501e-02  7.1317626792389538e-02  7.5396426157636198e-02  7.9620031473753808e-02  8.5030489610276136e-02  8.5807439040672923e-02  -8.5995638087408482e-02  -8.5222160522287052e-02  -7.9819223048894036e-02  -7.5595313114572099e-02  -7.1514039913504010e-02  -6.7497170836775353e-02  -6.3581465476366270e-02  -5.9746525140854684e-02  -5.5978887379155684e-02  -5.2268543624478053e-02  -4.8607230980227817e-02  -4.4989050572711207e-02  -4.1409419624302758e-02  -3.7864524098640509e-02  -3.4350862219352046e-02  -3.0864958545943233e-02  -2.7403185045793612e-02  -2.3961647936402354e-02  -2.0536129454803868e-02  -1.7122099517138382e-02  -1.3714830087875272e-02  -1.0309640004165952e-02  -6.9022634092660044e-03  -3.4892678638369446e-03  -6.8375662431692381e-05  3.3614719593682671e-03  6.8003761111552260e-03  1.0247978945019647e-02  1.3704007325569506e-02  1.7168685760255438e-02  2.0642942073846062e-02  2.4128426387430589e-02  2.7627412297023084e-02  3.1142651809862504e-02  3.4677236769430707e-02  3.8234499762731494e-02  4.1817979469595597e-02  4.5431481025410850e-02  4.9079269193058737e-02  5.2766478655691673e-02  5.6499598203468539e-02  6.0287446036998989e-02  6.4140647116613533e-02  6.8073003813503508e-02  7.2104936515929766e-02  7.6199859753722246e-02  8.0433641446017820e-02  8.5845214901842479e-02  8.6621783032154967e-02  -8.6647698989398822e-02  -8.5870620385867361e-02  -8.0458086428065012e-02  -7.6218195083302728e-02  -7.2116314981229487e-02  -6.8074447333469415e-02  -6.4130584203788907e-02  -6.0265066997499325e-02  -5.6465092345147995e-02  -5.2721011361154736e-02  -4.9024898959766840e-02  -4.5371129890496423e-02  -4.1755351656152427e-02  -3.8173978316202513e-02  -3.4623727649731630e-02  -3.1101327816563617e-02  -2.7603314777636282e-02  -2.4125878748005255e-02  -2.0664751961114100e-02  -1.7215165933653492e-02  -1.3771943781276448e-02  -1.0329798367270058e-02  -6.8838685555309498e-03  -3.4304017098348411e-03  3.2679202361534651e-05  3.5056534751531847e-03  6.9874737241367273e-03  1.0476632519372654e-02  1.3972024683429233e-02  1.7473495578887520e-02  2.0982004921266197e-02  2.4499510320126608e-02  2.8028721124854297e-02  3.1572838984568113e-02  3.5135348742405315e-02  3.8719885039555708e-02  4.2330186384379270e-02  4.5970155122169870e-02  4.9644052150215355e-02  5.3356904430639167e-02  5.7114977286919284e-02  6.0926729269259142e-02  6.4802250881791285e-02  6.8754640822285162e-02  7.2803453787418593e-02  7.6910806938642703e-02  8.1152579730286847e-02  8.6565245327801424e-02  8.7341130373650169e-02  -8.7212273919723526e-02  -8.6432367752619838e-02  -8.1011341522784400e-02  -7.6758043086611188e-02  -7.2638986471667041e-02  -6.8576032542968346e-02  -6.4608157373720748e-02  -6.0716298451758077e-02  -5.6888100993317571e-02  -5.3114258932983618e-02  -4.9387157726558793e-02  -4.5701428048986477e-02  -4.2052962239977711e-02  -3.8438426229041318e-02  -3.4854796444265590e-02  -3.1299063848417630e-02  -2.7768007633442275e-02  -2.4257992790784843e-02  -2.0764776340470525e-02  -1.7283360923413784e-02  -1.3808005427633541e-02  -1.0332541297270195e-02  -6.8511414609932712e-03  -3.3594660822543268e-03  1.4427965291027788e-04  3.6590952797430831e-03  7.1820893746363992e-03  1.0710061325390211e-02  1.4240887122339167e-02  1.7774176340198691e-02  2.1311241074681683e-02  2.4854692793036901e-02  2.8407958371209671e-02  3.1974875864841240e-02  3.5559421223969344e-02  3.9165561835329779e-02  4.2797222423229697e-02  4.6458364482272189e-02  5.0153198856301991e-02  5.3886605454002270e-02  5.7664610222668736e-02  6.1495339442211555e-02  6.5388443841456409e-02  6.9356493439105979e-02  7.3418430995931608e-02  7.7535425619640858e-02  8.1783445014613168e-02  8.7197051105746645e-02  8.7972039832698495e-02  -8.7696481736162554e-02  -8.6914262992787442e-02  -8.1485640881552260e-02  -7.7220995008358814e-02  -7.3087477451090441e-02  -6.9006659454612734e-02  -6.5018304171970021e-02  -6.1103766231757117e-02  -5.7251016708144212e-02  -5.3451036060277179e-02  -4.9696456769636112e-02  -4.5982131050250362e-02  -4.2304179202627135e-02  -3.8659512294419988e-02  -3.5045380590705777e-02  -3.1459083575294020e-02  -2.7897729753335848e-02  -2.4357987129724260e-02  -2.0835781562783234e-02  -1.7325978823056646e-02  -1.3822193084179554e-02  -1.0316995442904410e-02  -6.8029611524300492e-03  -3.2746271327847129e-03  2.6940690242225127e-04  3.8259230745928928e-03  7.3889508517784308e-03  1.0952802454306102e-02  1.4514282729676087e-02  1.8073239859728283e-02  2.1631975005142669e-02  2.5194300994775105e-02  2.8764727184022888e-02  3.2347918462630534e-02  3.5948405016014401e-02  3.9570472760883241e-02  4.3218179986637691e-02  4.6895482685259116e-02  5.0606482208274267e-02  5.4355869214225437e-02  5.8149415531666422e-02  6.1994937463608957e-02  6.5901715360911675e-02  6.9881906902492449e-02  7.3953998615946551e-02  7.8078432280346458e-02  8.2331270282568078e-02  8.7745564903304568e-02  8.8519558098354392e-02  -8.8105937158732231e-02  -8.7321786449390315e-02  -8.1886454814764406e-02  -7.7612219115599346e-02  -7.3466532549223307e-02  -6.9370631134974700e-02  -6.5364891365162520e-02  -6.1430948846592372e-02  -5.7557007333604304e-02  -5.3734255345893836e-02  -4.9955501950338620e-02  -4.6215767820730023e-02  -4.2511351935688620e-02  -3.8839369146186999e-02  -3.5197320812745243e-02  -3.1582825582704331e-02  -2.7993390816168622e-02  -2.4426140097717031e-02  -2.0877402191675852e-02  -1.7342157804199690e-02  -1.3813434124282875e-02  -1.0282080088381398e-02  -6.7379956003541120e-03  -3.1734513383710520e-03  4.1241505011847368e-04  4.0122820743244102e-03  7.6148213571970401e-03  1.1210798854450334e-02  1.4796407061389268e-02  1.8372909159147140e-02  2.1944723367236598e-02  2.5517618370494762e-02  2.9097560809954955e-02  3.2690150968927037e-02  3.6300433476659094e-02  3.9932908847504694e-02  4.3591650749932744e-02  4.7280503117822899e-02  5.1003374901260730e-02  5.4764713459638299e-02  5.8570013899692068e-02  6.2426792837648695e-02  6.6344005371418852e-02  7.0333471496291572e-02  7.4413319363286407e-02  7.8543415426562305e-02  8.2799896757548147e-02  8.8214595034361243e-02  8.8987579713945331e-02  -8.8445186673567738e-02  -8.7659422218768213e-02  -8.2218302418861230e-02  -7.7936064896397525e-02  -7.3780254920045418e-02  -6.9671776219452169e-02  -6.5651473955118445e-02  -6.1701165176884364e-02  -5.7809205883265165e-02  -5.3966915181101083e-02  -5.0167207572502051e-02  -4.6405201865369824e-02  -4.2677299258482390e-02  -3.8980738691176887e-02  -3.5313195540204782e-02  -3.1672551303888644e-02  -2.8056715600696711e-02  -2.4463388442354187e-02  -2.0889606447766398e-02  -1.7330963832926611e-02  -1.3780306039304344e-02  -1.0226400063911956e-02  -6.6546996037359770e-03  -3.0526026634882233e-03  5.8002899027863157e-04  4.2276933053404363e-03  7.8694246552935120e-03  1.1491435444815821e-02  1.5091263116234571e-02  1.8674090021273605e-02  2.2248176909275302e-02  2.5822050120154205e-02  2.9403313801999256e-02  3.2998375496210430e-02  3.6612559978076172e-02  4.0250344325002546e-02  4.3915617213678627e-02  4.7611958783202186e-02  5.1342980769332164e-02  5.5112823692926083e-02  5.8926677849333232e-02  6.2791762405557200e-02  6.6716736883128250e-02  7.0713133442308604e-02  7.4798787833514221e-02  7.8933104580234476e-02  8.3192268678261613e-02  8.8607112931238158e-02  8.9379143466977506e-02  -8.8717933299867421e-02  -8.7930850024639531e-02  -8.2484903726646436e-02  -7.8196160627379066e-02  -7.4032135064148574e-02  -6.9913428538506184e-02  -6.5881236050446795e-02  -6.1917482861162734e-02  -5.8010611287375238e-02  -5.4152004351920226e-02  -5.0334614422294734e-02  -4.6553581534174431e-02  -4.2805316531251414e-02  -3.9087068973647873e-02  -3.5396550354434175e-02  -3.1731751286505669e-02  -2.8090847345097460e-02  -2.4472078522918959e-02  -2.0873423798190068e-02  -1.7291813747955700e-02  -1.3720975842545547e-02  -1.0148018346618824e-02  -6.5513903722718625e-03  -2.9072734301733572e-03  7.8323686041101954e-04  4.4872119094709079e-03  8.1662510917355994e-03  1.1802524193386234e-02  1.5400661810201098e-02  1.8974310820319373e-02  2.2537561346584089e-02  2.6102008114839936e-02  2.9676488336496425e-02  3.3267648604766095e-02  3.6880587624490688e-02  4.0519374170267790e-02  4.4187442667984328e-02  4.7887932301875498e-02  5.1624048995684804e-02  5.5399567704622350e-02  5.9219351495868593e-02  6.3090326289712367e-02  6.7020881516275180e-02  7.1022300644984340e-02  7.5112178166848176e-02  7.9249549173221176e-02  8.3510622512878191e-02  8.8925423284945682e-02  8.9696604699358001e-02  -8.8927144871851091e-02  -8.8139032699484768e-02  -8.2689260511082593e-02  -7.8395463774580898e-02  -7.4225062124439467e-02  -7.0098402295600840e-02  -6.6056931281406328e-02  -6.2082631066492325e-02  -5.8163981831578941e-02  -5.4292380333591558e-02  -5.0460762628582130e-02  -4.6664223481078224e-02  -4.2899095548889023e-02  -3.9162516384558324e-02  -3.5452058401294340e-02  -3.1765574592414338e-02  -2.8101178344540796e-02  -2.4457286701862469e-02  -2.0832636896309917e-02  -1.7225994943587179e-02  -1.3633726488719730e-02  -1.0044156583740301e-02  -6.4265230066988281e-03  -2.7299368410783685e-03  1.0402784585171701e-03  4.8135260430421300e-03  8.5213807424492256e-03  1.2148147566738666e-02  1.5719607032457259e-02  1.9264156371238773e-02  2.2802405931895399e-02  2.6347730285661095e-02  2.9908725097286832e-02  3.3491145534936907e-02  3.7099114947907602e-02  4.0735831447481517e-02  4.4404003258030469e-02  4.8106177045613915e-02  5.1845076400182599e-02  5.5624081056573439e-02  5.9447726758642933e-02  6.3322664840985643e-02  6.7257046923274888e-02  7.1261947203413875e-02  7.5354766425068331e-02  7.9494253010763460e-02  8.3756622749610987e-02  8.9171273687941158e-02  8.9941752525332055e-02  -8.9075105845197441e-02  -8.8286257068588572e-02  -8.2833695441688837e-02  -7.8536280684080445e-02  -7.4361316366897356e-02  -7.0228954604218477e-02  -6.6180813538772615e-02  -6.2198899605641358e-02  -5.8271701511020554e-02  -5.4390601252672005e-02  -5.0548489207930869e-02  -4.6740378321284096e-02  -4.2962470864751030e-02  -3.9211709128204798e-02  -3.5485385012600949e-02  -3.1780966436103883e-02  -2.8096073900078559e-02  -2.4428597368634231e-02  -2.0777026571458596e-02  -1.7140973641737587e-02  -1.3520124289321915e-02  -9.9108712461756059e-03  -6.2780616689081517e-03  -2.5079513247558902e-03  1.3757511542123845e-03  5.2318996599558885e-03  8.9444122237038303e-03  1.2517123304152573e-02  1.6027649631033623e-02  1.9522429967531330e-02  2.3024447142512797e-02  2.6544709224605972e-02  3.0088929932436236e-02  3.3660537064092777e-02  3.7261953075702042e-02  4.0895160526063824e-02  4.4561992681447365e-02  4.8264354651649313e-02  5.2004489091567796e-02  5.5785407144083636e-02  5.9611356046697879e-02  6.3488756648127836e-02  6.7425570237941004e-02  7.1432708847990870e-02  7.5527430181135793e-02  7.9668275933335947e-02  8.3931460496458901e-02  8.9345934542245403e-02  9.0115890947046834e-02  -8.9163442270595514e-02  -8.8374153460051272e-02  -8.2919868616993006e-02  -7.8620269058992789e-02  -7.4442551076233446e-02  -7.0306741883863585e-02  -6.6254563053980461e-02  -6.2268029392803154e-02  -5.8335627126399218e-02  -5.4448718564523990e-02  -5.0600150343139604e-02  -4.6784860943776874e-02  -4.2998933478829222e-02  -3.9239124798552280e-02  -3.5502440426425037e-02  -3.1785905453587421e-02  -2.8086452729591045e-02  -2.4400916654368422e-02  -2.0726211228155409e-02  -1.7059796957057942e-02  -1.3399956661688308e-02  -9.7512578283554391e-03  -6.0992581277267994e-03  -2.2331152389455287e-03  1.7768421560061072e-03  5.7283653594686684e-03  9.4098022573141215e-03  1.2858985941062884e-02  1.6277063748312708e-02  1.9712629993224984e-02  2.3177801895399038e-02  2.6675017227299831e-02  3.0204700318967947e-02  3.3767182721265963e-02  3.7363033951762388e-02  4.0993079495946820e-02  4.4658395902606264e-02  4.8360371537385177e-02  5.2100882540849255e-02  5.5882671605600030e-02  5.9709783854694519e-02  6.3588484043960516e-02  6.7526609265138690e-02  7.1534967319400830e-02  7.5630729735027907e-02  7.9772312328052444e-02  8.4035927568586841e-02  8.9450261104121312e-02  9.0219900326392516e-02  -8.9193133796573745e-02  -8.8403704769486308e-02  -8.2948782570141627e-02  -7.8648432423111272e-02  -7.4469771356869635e-02  -7.0332777788006923e-02  -6.6279217488200357e-02  -6.2291108811297007e-02  -5.8356938021023590e-02  -5.4468061432995069e-02  -5.0617310480602952e-02  -4.6799596864636250e-02  -4.3010959697980300e-02  -3.9248085706286878e-02  -3.5507868792366892e-02  -3.1787153725863743e-02  -2.8082573505406036e-02  -2.4390444245404569e-02  -2.0706709236653818e-02  -1.7026936101702677e-02  -1.3346438009664357e-02  -9.6669300815938886e-03  -6.0063108747688927e-03  -2.0100475133020086e-03  2.0152550108239312e-03  6.0083169166432523e-03  9.7697211233548596e-03  1.3050037798526678e-02  1.6388094840