<?xml version="1.0"?>
<VTKFile type="UnstructuredGrid"  version="0.1"  >
<UnstructuredGrid>
<Piece  NumberOfPoints="1617" NumberOfCells="3072">
<Points>
<DataArray  type="Float64"  NumberOfComponents="3"  format="ascii">0 0 0  0.03125 0 0  0.0625 0 0  0.09375 0 0  0.125 0 0  0.15625 0 0  0.1875 0 0  0.21875 0 0  0.25 0 0  0.28125 0 0  0.3125 0 0  0.34375 0 0  0.375 0 0  0.40625 0 0  0.4375 0 0  0.46875 0 0  0.5 0 0  0.53125 0 0  0.5625 0 0  0.59375 0 0  0.625 0 0  0.65625 0 0  0.6875 0 0  0.71875 0 0  0.75 0 0  0.78125 0 0  0.8125 0 0  0.84375 0 0  0.875 0 0  0.90625 0 0  0.9375 0 0  0.96875 0 0  1 0 0  1.03125 0 0  1.0625 0 0  1.09375 0 0  1.125 0 0  1.15625 0 0  1.1875 0 0  1.21875 0 0  1.25 0 0  1.28125 0 0  1.3125 0 0  1.34375 0 0  1.375 0 0  1.40625 0 0  1.4375 0 0  1.46875 0 0  1.5 0 0  0 0.03125 0  0.03125 0.03125 0  0.0625 0.03125 0  0.09375 0.03125 0  0.125 0.03125 0  0.15625 0.03125 0  0.1875 0.03125 0  0.21875 0.03125 0  0.25 0.03125 0  0.28125 0.03125 0  0.3125 0.03125 0  0.34375 0.03125 0  0.375 0.03125 0  0.40625 0.03125 0  0.4375 0.03125 0  0.46875 0.03125 0  0.5 0.03125 0  0.53125 0.03125 0  0.5625 0.03125 0  0.59375 0.03125 0  0.625 0.03125 0  0.65625 0.03125 0  0.6875 0.03125 0  0.71875 0.03125 0  0.75 0.03125 0  0.78125 0.03125 0  0.8125 0.03125 0  0.84375 0.03125 0  0.875 0.03125 0  0.90625 0.03125 0  0.9375 0.03125 0  0.96875 0.03125 0  1 0.03125 0  1.03125 0.03125 0  1.0625 0.03125 0  1.09375 0.03125 0  1.125 0.03125 0  1.15625 0.03125 0  1.1875 0.03125 0  1.21875 0.03125 0  1.25 0.03125 0  1.28125 0.03125 0  1.3125 0.03125 0  1.34375 0.03125 0  1.375 0.03125 0  1.40625 0.03125 0  1.4375 0.03125 0  1.46875 0.03125 0  1.5 0.03125 0  0 0.0625 0  0.03125 0.0625 0  0.0625 0.0625 0  0.09375 0.0625 0  0.125 0.0625 0  0.15625 0.0625 0  0.1875 0.0625 0  0.21875 0.0625 0  0.25 0.0625 0  0.28125 0.0625 0  0.3125 0.0625 0  0.34375 0.0625 0  0.375 0.0625 0  0.40625 0.0625 0  0.4375 0.0625 0  0.46875 0.0625 0  0.5 0.0625 0  0.53125 0.0625 0  0.5625 0.0625 0  0.59375 0.0625 0  0.625 0.0625 0  0.65625 0.0625 0  0.6875 0.0625 0  0.71875 0.0625 0  0.75 0.0625 0  0.78125 0.0625 0  0.8125 0.0625 0  0.84375 0.0625 0  0.875 0.0625 0  0.90625 0.0625 0  0.9375 0.0625 0  0.96875 0.0625 0  1 0.0625 0  1.03125 0.0625 0  1.0625 0.0625 0  1.09375 0.0625 0  1.125 0.0625 0  1.15625 0.0625 0  1.1875 0.0625 0  1.21875 0.0625 0  1.25 0.0625 0  1.28125 0.0625 0  1.3125 0.0625 0  1.34375 0.0625 0  1.375 0.0625 0  1.40625 0.0625 0  1.4375 0.0625 0  1.46875 0.0625 0  1.5 0.0625 0  0 0.09375 0  0.03125 0.09375 0  0.0625 0.09375 0  0.09375 0.09375 0  0.125 0.09375 0  0.15625 0.09375 0  0.1875 0.09375 0  0.21875 0.09375 0  0.25 0.09375 0  0.28125 0.09375 0  0.3125 0.09375 0  0.34375 0.09375 0  0.375 0.09375 0  0.40625 0.09375 0  0.4375 0.09375 0  0.46875 0.09375 0  0.5 0.09375 0  0.53125 0.09375 0  0.5625 0.09375 0  0.59375 0.09375 0  0.625 0.09375 0  0.65625 0.09375 0  0.6875 0.09375 0  0.71875 0.09375 0  0.75 0.09375 0  0.78125 0.09375 0  0.8125 0.09375 0  0.84375 0.09375 0  0.875 0.09375 0  0.90625 0.09375 0  0.9375 0.09375 0  0.96875 0.09375 0  1 0.09375 0  1.03125 0.09375 0  1.0625 0.09375 0  1.09375 0.09375 0  1.125 0.09375 0  1.15625 0.09375 0  1.1875 0.09375 0  1.21875 0.09375 0  1.25 0.09375 0  1.28125 0.09375 0  1.3125 0.09375 0  1.34375 0.09375 0  1.375 0.09375 0  1.40625 0.09375 0  1.4375 0.09375 0  1.46875 0.09375 0  1.5 0.09375 0  0 0.125 0  0.03125 0.125 0  0.0625 0.125 0  0.09375 0.125 0  0.125 0.125 0  0.15625 0.125 0  0.1875 0.125 0  0.21875 0.125 0  0.25 0.125 0  0.28125 0.125 0  0.3125 0.125 0  0.34375 0.125 0  0.375 0.125 0  0.40625 0.125 0  0.4375 0.125 0  0.46875 0.125 0  0.5 0.125 0  0.53125 0.125 0  0.5625 0.125 0  0.59375 0.125 0  0.625 0.125 0  0.65625 0.125 0  0.6875 0.125 0  0.71875 0.125 0  0.75 0.125 0  0.78125 0.125 0  0.8125 0.125 0  0.84375 0.125 0  0.875 0.125 0  0.90625 0.125 0  0.9375 0.125 0  0.96875 0.125 0  1 0.125 0  1.03125 0.125 0  1.0625 0.125 0  1.09375 0.125 0  1.125 0.125 0  1.15625 0.125 0  1.1875 0.125 0  1.21875 0.125 0  1.25 0.125 0  1.28125 0.125 0  1.3125 0.125 0  1.34375 0.125 0  1.375 0.125 0  1.40625 0.125 0  1.4375 0.125 0  1.46875 0.125 0  1.5 0.125 0  0 0.15625 0  0.03125 0.15625 0  0.0625 0.15625 0  0.09375 0.15625 0  0.125 0.15625 0  0.15625 0.15625 0  0.1875 0.15625 0  0.21875 0.15625 0  0.25 0.15625 0  0.28125 0.15625 0  0.3125 0.15625 0  0.34375 0.15625 0  0.375 0.15625 0  0.40625 0.15625 0  0.4375 0.15625 0  0.46875 0.15625 0  0.5 0.15625 0  0.53125 0.15625 0  0.5625 0.15625 0  0.59375 0.15625 0  0.625 0.15625 0  0.65625 0.15625 0  0.6875 0.15625 0  0.71875 0.15625 0  0.75 0.15625 0  0.78125 0.15625 0  0.8125 0.15625 0  0.84375 0.15625 0  0.875 0.15625 0  0.90625 0.15625 0  0.9375 0.15625 0  0.96875 0.15625 0  1 0.15625 0  1.03125 0.15625 0  1.0625 0.15625 0  1.09375 0.15625 0  1.125 0.15625 0  1.15625 0.15625 0  1.1875 0.15625 0  1.21875 0.15625 0  1.25 0.15625 0  1.28125 0.15625 0  1.3125 0.15625 0  1.34375 0.15625 0  1.375 0.15625 0  1.40625 0.15625 0  1.4375 0.15625 0  1.46875 0.15625 0  1.5 0.15625 0  0 0.1875 0  0.03125 0.1875 0  0.0625 0.1875 0  0.09375 0.1875 0  0.125 0.1875 0  0.15625 0.1875 0  0.1875 0.1875 0  0.21875 0.1875 0  0.25 0.1875 0  0.28125 0.1875 0  0.3125 0.1875 0  0.34375 0.1875 0  0.375 0.1875 0  0.40625 0.1875 0  0.4375 0.1875 0  0.46875 0.1875 0  0.5 0.1875 0  0.53125 0.1875 0  0.5625 0.1875 0  0.59375 0.1875 0  0.625 0.1875 0  0.65625 0.1875 0  0.6875 0.1875 0  0.71875 0.1875 0  0.75 0.1875 0  0.78125 0.1875 0  0.8125 0.1875 0  0.84375 0.1875 0  0.875 0.1875 0  0.90625 0.1875 0  0.9375 0.1875 0  0.96875 0.1875 0  1 0.1875 0  1.03125 0.1875 0  1.0625 0.1875 0  1.09375 0.1875 0  1.125 0.1875 0  1.15625 0.1875 0  1.1875 0.1875 0  1.21875 0.1875 0  1.25 0.1875 0  1.28125 0.1875 0  1.3125 0.1875 0  1.34375 0.1875 0  1.375 0.1875 0  1.40625 0.1875 0  1.4375 0.1875 0  1.46875 0.1875 0  1.5 0.1875 0  0 0.21875 0  0.03125 0.21875 0  0.0625 0.21875 0  0.09375 0.21875 0  0.125 0.21875 0  0.15625 0.21875 0  0.1875 0.21875 0  0.21875 0.21875 0  0.25 0.21875 0  0.28125 0.21875 0  0.3125 0.21875 0  0.34375 0.21875 0  0.375 0.21875 0  0.40625 0.21875 0  0.4375 0.21875 0  0.46875 0.21875 0  0.5 0.21875 0  0.53125 0.21875 0  0.5625 0.21875 0  0.59375 0.21875 0  0.625 0.21875 0  0.65625 0.21875 0  0.6875 0.21875 0  0.71875 0.21875 0  0.75 0.21875 0  0.78125 0.21875 0  0.8125 0.21875 0  0.84375 0.21875 0  0.875 0.21875 0  0.90625 0.21875 0  0.9375 0.21875 0  0.96875 0.21875 0  1 0.21875 0  1.03125 0.21875 0  1.0625 0.21875 0  1.09375 0.21875 0  1.125 0.21875 0  1.15625 0.21875 0  1.1875 0.21875 0  1.21875 0.21875 0  1.25 0.21875 0  1.28125 0.21875 0  1.3125 0.21875 0  1.34375 0.21875 0  1.375 0.21875 0  1.40625 0.21875 0  1.4375 0.21875 0  1.46875 0.21875 0  1.5 0.21875 0  0 0.25 0  0.03125 0.25 0  0.0625 0.25 0  0.09375 0.25 0  0.125 0.25 0  0.15625 0.25 0  0.1875 0.25 0  0.21875 0.25 0  0.25 0.25 0  0.28125 0.25 0  0.3125 0.25 0  0.34375 0.25 0  0.375 0.25 0  0.40625 0.25 0  0.4375 0.25 0  0.46875 0.25 0  0.5 0.25 0  0.53125 0.25 0  0.5625 0.25 0  0.59375 0.25 0  0.625 0.25 0  0.65625 0.25 0  0.6875 0.25 0  0.71875 0.25 0  0.75 0.25 0  0.78125 0.25 0  0.8125 0.25 0  0.84375 0.25 0  0.875 0.25 0  0.90625 0.25 0  0.9375 0.25 0  0.96875 0.25 0  1 0.25 0  1.03125 0.25 0  1.0625 0.25 0  1.09375 0.25 0  1.125 0.25 0  1.15625 0.25 0  1.1875 0.25 0  1.21875 0.25 0  1.25 0.25 0  1.28125 0.25 0  1.3125 0.25 0  1.34375 0.25 0  1.375 0.25 0  1.40625 0.25 0  1.4375 0.25 0  1.46875 0.25 0  1.5 0.25 0  0 0.28125 0  0.03125 0.28125 0  0.0625 0.28125 0  0.09375 0.28125 0  0.125 0.28125 0  0.15625 0.28125 0  0.1875 0.28125 0  0.21875 0.28125 0  0.25 0.28125 0  0.28125 0.28125 0  0.3125 0.28125 0  0.34375 0.28125 0  0.375 0.28125 0  0.40625 0.28125 0  0.4375 0.28125 0  0.46875 0.28125 0  0.5 0.28125 0  0.53125 0.28125 0  0.5625 0.28125 0  0.59375 0.28125 0  0.625 0.28125 0  0.65625 0.28125 0  0.6875 0.28125 0  0.71875 0.28125 0  0.75 0.28125 0  0.78125 0.28125 0  0.8125 0.28125 0  0.84375 0.28125 0  0.875 0.28125 0  0.90625 0.28125 0  0.9375 0.28125 0  0.96875 0.28125 0  1 0.28125 0  1.03125 0.28125 0  1.0625 0.28125 0  1.09375 0.28125 0  1.125 0.28125 0  1.15625 0.28125 0  1.1875 0.28125 0  1.21875 0.28125 0  1.25 0.28125 0  1.28125 0.28125 0  1.3125 0.28125 0  1.34375 0.28125 0  1.375 0.28125 0  1.40625 0.28125 0  1.4375 0.28125 0  1.46875 0.28125 0  1.5 0.28125 0  0 0.3125 0  0.03125 0.3125 0  0.0625 0.3125 0  0.09375 0.3125 0  0.125 0.3125 0  0.15625 0.3125 0  0.1875 0.3125 0  0.21875 0.3125 0  0.25 0.3125 0  0.28125 0.3125 0  0.3125 0.3125 0  0.34375 0.3125 0  0.375 0.3125 0  0.40625 0.3125 0  0.4375 0.3125 0  0.46875 0.3125 0  0.5 0.3125 0  0.53125 0.3125 0  0.5625 0.3125 0  0.59375 0.3125 0  0.625 0.3125 0  0.65625 0.3125 0  0.6875 0.3125 0  0.71875 0.3125 0  0.75 0.3125 0  0.78125 0.3125 0  0.8125 0.3125 0  0.84375 0.3125 0  0.875 0.3125 0  0.90625 0.3125 0  0.9375 0.3125 0  0.96875 0.3125 0  1 0.3125 0  1.03125 0.3125 0  1.0625 0.3125 0  1.09375 0.3125 0  1.125 0.3125 0  1.15625 0.3125 0  1.1875 0.3125 0  1.21875 0.3125 0  1.25 0.3125 0  1.28125 0.3125 0  1.3125 0.3125 0  1.34375 0.3125 0  1.375 0.3125 0  1.40625 0.3125 0  1.4375 0.3125 0  1.46875 0.3125 0  1.5 0.3125 0  0 0.34375 0  0.03125 0.34375 0  0.0625 0.34375 0  0.09375 0.34375 0  0.125 0.34375 0  0.15625 0.34375 0  0.1875 0.34375 0  0.21875 0.34375 0  0.25 0.34375 0  0.28125 0.34375 0  0.3125 0.34375 0  0.34375 0.34375 0  0.375 0.34375 0  0.40625 0.34375 0  0.4375 0.34375 0  0.46875 0.34375 0  0.5 0.34375 0  0.53125 0.34375 0  0.5625 0.34375 0  0.59375 0.34375 0  0.625 0.34375 0  0.65625 0.34375 0  0.6875 0.34375 0  0.71875 0.34375 0  0.75 0.34375 0  0.78125 0.34375 0  0.8125 0.34375 0  0.84375 0.34375 0  0.875 0.34375 0  0.90625 0.34375 0  0.9375 0.34375 0  0.96875 0.34375 0  1 0.34375 0  1.03125 0.34375 0  1.0625 0.34375 0  1.09375 0.34375 0  1.125 0.34375 0  1.15625 0.34375 0  1.1875 0.34375 0  1.21875 0.34375 0  1.25 0.34375 0  1.28125 0.34375 0  1.3125 0.34375 0  1.34375 0.34375 0  1.375 0.34375 0  1
[...]
<PointData  Scalars="f_81"> 
<DataArray  type="Float64"  Name="f_81"  format="ascii">3.2600086379434046e-01  6.8581193982556754e-01  6.7661667597628217e-01  6.7753217844162150e-01  6.8074526888596731e-01  6.8084173798960401e-01  6.7824559685299390e-01  6.7341181598243594e-01  6.6678760492648392e-01  6.5891230996988481e-01  6.5027116278084840e-01  6.4122845753655422e-01  6.3202323922138159e-01  6.2279530528930216e-01  6.1361867479807153e-01  6.0452902548935727e-01  5.9554161662391381e-01  5.8666120279112410e-01  5.7788679494854989e-01  5.6921368331780897e-01  5.6063427878983285e-01  5.5213863764125726e-01  5.4371510089752717e-01  5.3535122196828067e-01  5.2703498345643618e-01  5.1875617355382220e-01  5.1050770162153059e-01  5.0228660351078280e-01  4.9409453181881230e-01  4.8593761920456907e-01  4.7782579290946842e-01  4.6977149098433835e-01  4.6178856242548055e-01  4.5388932570295815e-01  4.4608600975580587e-01  4.3837518714851259e-01  4.3076467661058371e-01  4.2315315130736358e-01  4.1560976360213087e-01  4.0742721000097010e-01  3.9970477392583675e-01  3.8772662157219578e-01  3.8276588994532473e-01  3.4972537359809475e-01  3.8600628413058075e-01  2.1824867365978803e-01  5.4132708409396457e-01  -2.7145877123705936e-01  1.3675384899534713e+00  1.6494101394154348e-01  4.9005191294845091e-01  4.3710513125594203e-01  4.2571389748232141e-01  4.4150169284540747e-01  4.5467332180900105e-01  4.6461815216157298e-01  4.7206573839823462e-01  4.7743010254039531e-01  4.8127432543352272e-01  4.8412488046448454e-01  4.8638504721099174e-01  4.8832179693089911e-01  4.9009228531755217e-01  4.9178072903896963e-01  4.9342956974752267e-01  4.9506004751712307e-01  4.9668354847847579e-01  4.9830690144846457e-01  4.9993436326432922e-01  5.0156805622208323e-01  5.0320783507036060e-01  5.0485109485171697e-01  5.0649278520565721e-01  5.0812575185491760e-01  5.0974141221682157e-01  5.1133067103046204e-01  5.1288490762668115e-01  5.1439684358913629e-01  5.1586112156893260e-01  5.1727452991040090e-01  5.1863575812955010e-01  5.1994496037043703e-01  5.2120205496765992e-01  5.2240606492535013e-01  5.2354544542509429e-01  5.2460256635317437e-01  5.2549108830897318e-01  5.2614819737511320e-01  5.2612153865635380e-01  5.2558339992173109e-01  5.2226210967026254e-01  5.2019264430196721e-01  5.0546798513236491e-01  5.1494837875366783e-01  4.4418404921259164e-01  5.7047558500111040e-01  1.6932806710771647e-01  1.7789278353895683e+00  2.1379984094388496e-01  5.3791625147476640e-01  4.7866967662298626e-01  4.5783061621429805e-01  4.7603877809308437e-01  4.8738796519756511e-01  4.9536273273061310e-01  5.0097623016062132e-01  5.0454395196192459e-01  5.0656026792238096e-01  5.0754652027359759e-01  5.0792277591333834e-01  5.0797337981031077e-01  5.0786736814372269e-01  5.0769455706233535e-01  5.0749840687716385e-01  5.0729848088339757e-01  5.0710318279428646e-01  5.0691595729633321e-01  5.0673789907427125e-01  5.0656868444509906e-01  5.0640685156433696e-01  5.0624991069444325e-01  5.0609449155032649e-01  5.0593660519406980e-01  5.0577202904315299e-01  5.0559677223685540e-01  5.0540753926800397e-01  5.0520209164527563e-01  5.0497942107056448e-01  5.0473971396768191e-01  5.0448402283846783e-01  5.0421389222908941e-01  5.0392976750961949e-01  5.0363067031512154e-01  5.0330382562962550e-01  5.0293187089809155e-01  5.0242167565670792e-01  5.0172786588968710e-01  5.0035507377890986e-01  4.9866384771518329e-01  4.9398669230822106e-01  4.9193509106317634e-01  4.7460971068184687e-01  4.9159007418289619e-01  4.0561132665101857e-01  5.7414705163424395e-01  1.4668739021454374e-01  1.6243180440562590e+00  2.1354378695052043e-01  5.3180483253852506e-01  4.7174696695958268e-01  4.4919214682331976e-01  4.6941666779107316e-01  4.7894295395152198e-01  4.8681373615987972e-01  4.9254456934557744e-01  4.9637983563254623e-01  4.9869074981212180e-01  4.9997945529180743e-01  5.0065727316897590e-01  5.0100633902025626e-01  5.0119572252418620e-01  5.0131526111647062e-01  5.0140815964444707e-01  5.0149367269908141e-01  5.0158007973778640e-01  5.0167099702258777e-01  5.0176798436133907e-01  5.0187139114788248e-01  5.0198050050675236e-01  5.0209348038619617e-01  5.0220739513476709e-01  5.0231840842617292e-01  5.0242222298311456e-01  5.0251470403661980e-01  5.0259253615713662e-01  5.0265371800164493e-01  5.0269774076807439e-01  5.0272543916338597e-01  5.0273848476541738e-01  5.0273886068681894e-01  5.0272715337945395e-01  5.0270218327302207e-01  5.0265061332782224e-01  5.0255393536849213e-01  5.0231849868312817e-01  5.0189637081333627e-01  5.0080344397019672e-01  4.9938963525197455e-01  4.9509964114736288e-01  4.9335544149756327e-01  4.7714467282725775e-01  4.9390119488438627e-01  4.1175232923948141e-01  5.7694942473302557e-01  1.4796200935426632e-01  1.6597740508538494e+00  2.1589299111345767e-01  5.3449871929986614e-01  4.7455106922839674e-01  4.5103664958920991e-01  4.7074674499680380e-01  4.7874405974769602e-01  4.8668446188510106e-01  4.9220880977797060e-01  4.9596339114715327e-01  4.9819780833897936e-01  4.9942873792738779e-01  5.0005357893020896e-01  5.0035153769306973e-01  5.0049045694902761e-01  5.0055952045568874e-01  5.0060149699609746e-01  5.0063540714171484e-01  5.0066954116901752e-01  5.0070775896556863e-01  5.0075202450868195e-01  5.0080313485021033e-01  5.0086071363578244e-01  5.0092298636224153e-01  5.0098666184091845e-01  5.0104712985709787e-01  5.0109908461298547e-01  5.0113749992146106e-01  5.0115867023045246e-01  5.0116092794100542e-01  5.0114476927817420e-01  5.0111242165675041e-01  5.0106698434398844e-01  5.0101161066465549e-01  5.0094768523181410e-01  5.0087440728291321e-01  5.0077865553355949e-01  5.0064198517170289e-01  5.0037183084329295e-01  4.9992271052104964e-01  4.9881832617215749e-01  4.9742564105478265e-01  4.9321091430604913e-01  4.9167339795068365e-01  4.7572647223323172e-01  4.9314009199470366e-01  4.1147263395250472e-01  5.7734268990554860e-01  1.5139085073210296e-01  1.6570342507512432e+00  2.1711440768967605e-01  5.3665084200229185e-01  4.7619552200023946e-01  4.5207158534101100e-01  4.7118838719731926e-01  4.7870093063124192e-01  4.8670463121188828e-01  4.9196555873054876e-01  4.9564695881693199e-01  4.9781055675086183e-01  4.9900293285725406e-01  4.9959630735046706e-01  4.9986836701593906e-01  4.9998417319698218e-01  5.0003193607680418e-01  5.0005415939855391e-01  5.0007011997616280e-01  5.0008883159509787e-01  5.0011519988325714e-01  5.0015240034330266e-01  5.0020236891818015e-01  5.0026544266048711e-01  5.0033970516012050e-01  5.0042055981765476e-01  5.0050092350523179e-01  5.0057232914623617e-01  5.0062680800376480e-01  5.0065889931012852e-01  5.0066688222356426e-01  5.0065271973924985e-01  5.0062095239990045e-01  5.0057708297374515e-01  5.0052622179521200e-01  5.0047104519449204e-01  5.0041139751880659e-01  5.0033438569927691e-01  5.0022160385781123e-01  4.9998107172690681e-01  4.9956882871237346e-01  4.9851372881883826e-01  4.9719102390711650e-01  4.9308676704695564e-01  4.9170985462095457e-01  4.7603623698846209e-01  4.9371308029493471e-01  4.1258510528277670e-01  5.7863531150317382e-01  1.5356083548363639e-01  1.6615901243372473e+00  2.1809961994941701e-01  5.3826816633362840e-01  4.7725407437104739e-01  4.5270795379072398e-01  4.7153580242819432e-01  4.7891016998384783e-01  4.8682582882606884e-01  4.9192214765224057e-01  4.9558924682170885e-01  4.9771647475926822e-01  4.9889602854532178e-01  4.9947487944954921e-01  4.9973466566698638e-01  4.9983743558307497e-01  4.9987146350797029e-01  4.9987942124166740e-01  4.9988132020702897e-01  4.9988752891969740e-01  4.9990465978494475e-01  4.9993801182700098e-01  4.9999164769656196e-01  5.0006737076996033e-01  5.0016318872338106e-01  5.0027219384936916e-01  5.0038263431128782e-01  5.0047998814834316e-01  5.0055082317092681e-01  5.0058686444080747e-01  5.0058703687668138e-01  5.0055660531676971e-01  5.0050444806921279e-01  5.0044000885206319e-01  5.0037117607324832e-01  5.0030212906205829e-01  5.0023315951162051e-01  5.0015123728729782e-01  5.0003744053800170e-01  4.9979983557501373e-01  4.9939453706752279e-01  4.9835411716837119e-01  4.9705652827327251e-01  4.9300358416983991e-01  4.9170395321593957e-01  4.7617956995697308e-01  4.9399958592823667e-01  4.1324097643832469e-01  5.7931281749728925e-01  1.5542040829763629e-01  1.6638557865212964e+00  2.1879892370818541e-01  5.3944503407704791e-01  4.7799851800973864e-01  4.5318215908002885e-01  4.7185112030731441e-01  4.7910764125144911e-01  4.8692114796085023e-01  4.9195553986943236e-01  4.9561742081816729e-01  4.9772062014320062e-01  4.9889410865214051e-01  4.9946261161715361e-01  4.9971295670917404e-01  4.9980346664839354e-01  4.9982337303332125e-01  4.9981519889179482e-01  4.9980019297123046e-01  4.9979058466147375e-01  4.9979543990476410e-01  4.9982402416348604e-01  4.9988446450895102e-01  4.9998187931353893e-01  5.0011488090936451e-01  5.0027278564289479e-01  5.0043510325250107e-01  5.0057563001901328e-01  5.0067090944962822e-01  5.0070886181849095e-01  5.0069169205390696e-01  5.0063218981445179e-01  5.0054726221060830e-01  5.0045244657118315e-01  5.0035906598530389e-01  5.0027248078681108e-01  5.0019267314968652e-01  5.0010562995995089e-01  4.9999114913626053e-01  4.9975656391487472e-01  4.9935718000365187e-01  4.9832765951067443e-01  4.9704635257187174e-01  4.9302691186822667e-01  4.9177293213075141e-01  4.7635185608654601e-01  4.9425313032761065e-01  4.1377957889287548e-01  5.7985225654423223e-01  1.5694091440218846e-01  1.6659211734947090e+00  2.1930252009782988e-01  5.4027609421119527e-01  4.7849558207419679e-01  4.5347982556271654e-01  4.7202668982654911e-01  4.7918973383730662e-01  4.8695203556863986e-01  4.9196599113860395e-01  4.9562070314968548e-01  4.9771550947626320e-01  4.9889049336715102e-01  4.9945523684662779e-01  4.9970054452914325e-01  4.9978131817726201e-01  4.9978808990272078e-01  4.9976196118123045e-01  4.9972657681684324e-01  4.9969523532285337e-01  4.9968100102966884e-01  4.9970064010246051e-01  4.9976921921170669e-01  4.9989965964696953e-01  5.0009302242598708e-01  5.0033242041873638e-01  5.0058033112068256e-01  5.0078695865273892e-01  5.0091042217661508e-01  5.0093570897178685e-01  5.0087630485785817e-01  5.0076151971958638e-01  5.0062216513498614e-01  5.0048194395664358e-01  5.0035508299784570e-01  5.0024646224211444e-01  5.0015396666679091e-01  5.0006115874349200e-01  4.9994553720953078e-01  4.9971303810766443e-01  4.9931750536505393e-01  4.9829507195469724e-01  4.9702278133425365e-01  4.9302501776525304e-01  4.9179647937002713e-01  4.7644946170272195e-01  4.9439704413542490e-01  4.1415269491273771e-01  5.8020311551103498e-01  1.5812944472893897e-01  1.6674840510756068e+00  2.1966686337558999e-01  5.4087178341272613e-01  4.7884450231208869e-01  4.5367430654319518e-01  4.7212695334534344e-01  4.7922744949469270e-01  4.8696328985919729e-01  4.9196270400512032e-01  4.9561303092984577e-01  4.9770868890822195e-01  4.9888686416280259e-01  4.9945037962058242e-01  4.9969167481248550e-01  4.9976282601774685e-01  4.9975471126955118e-01  4.9970506118945346e-01  4.9964200707385548e-01  4.9957493707024114e-01  4.9952741803907813e-01  4.9952667429556230e-01  4.9959916438075158e-01  4.9977788654786570e-01  5.0006878503938124e-01  5.0044574821078569e-01  5.0083616987998525e-01  5.0113942512189513e-01  5.0128080728226676e-01  5.0125255948928427e-01  5.0110113642172993e-01  5.0088931912186341e-01  5.0066864642331699e-01  5.0047023914782185e-01  5.0030721516169196e-01  5.0017967638377181e-01  5.0008012987084471e-01  4.9998766433709613e-01  4.9987641026888507e-01  4.9965044001976500e-01  4.9926194429182963e-01  4.9824828002778349e-01  4.9698463627543049e-01  4.9300513305939014e-01  4.9179407603427222e-01  4.7650638482288027e-01  4.9448270253920801e-01  4.1442843548733077e-01  5.8044720582543152e-01  1.5909019306170877e-01  1.6687175008408690e+00  2.1993406679266719e-01  5.4130590170950232e-01  4.7909982117302624e-01  4.5380993307454509e-01  4.7219228429514104e-01  4.7924951655654885e-01  4.8696790319451422e-01  4.9195691950068920e-01  4.9560801046795605e-01  4.9770760918909296e-01  4.9888949799818910e-01  4.9945389804145718e-01  4.9969258950720447e-01  4.9975513548012240e-01  4.9973067526713855e-01  4.9965211731505005e-01  4.9955321762635962e-01  4.9942803017265491e-01  4.9933070469395202e-01  4.9928513104251143e-01  4.9934909572815200e-01  4.9960135467888184e-01  5.0004982318145186e-01  5.0066702845992328e-01  5.0129832852464662e-01  5.0172579177807763e-01  5.0182560382330765e-01  5.0164253808623838e-01  5.0130745584061320e-01  5.0094090362204557e-01  5.0061527939666073e-01  5.0035870826091378e-01  5.0017192592636361e-01  5.0004208728306410e-01  4.9995168421393116e-01  4.9987330912845684e-01  4.9977724595761175e-01  4.9956593302816205e-01  4.9919037456248855e-01  4.9818944592223752e-01  4.9693659960841285e-01  4.9297506252727891e-01  4.9177842181653153e-01  4.7654109618057650e-01  4.9453677816926567e-01  4.1464215130195936e-01  5.8062527369167372e-01  1.5987730472989536e-01  1.6697016676249257e+00  2.2013089611419587e-01  5.4162465656861825e-01  4.7929190498456631e-01  4.5390968046969354e-01  4.7223961230028422e-01  4.7926566843190155e-01  4.8697260144216087e-01  4.9195565294117033e-01  4.9561023387659514e-01  4.9771502505068510e-01  4.9890264169506721e-01  4.9947130149657204e-01  4.9971118867650433e-01  4.9976938153111466e-01  4.9973106713480087e-01  4.9962413070459510e-01  4.9948324797330462e-01  4.9927407831753368e-01  4.9911698018506317e-01  4.9896690112220632e-01  4.9901211394314876e-01  4.9937352627219528e-01  5.0006707631898317e-01  5.0113476162193871e-01  5.0217251185854972e-01  5.0269302947590244e-01  5.0255030400386158e-01  5.0199410456163251e-01  5.0133535780887317e-01  5.0076240783600579e-01  5.0034011652843646e-01  5.0006214979064356e-01  4.9989533669993791e-01  4.9980275877393687e-01  4.9975291440183045e-01  4.9971174330502305e-01  4.9964710548205604e-01  4.9946151481437501e-01  4.9910634028675760e-01  4.9812289995394543e-01  4.9688374080177350e-01  4.9294059405753005e-01  4.9175722846851311e-01  4.7656325053565973e-01  4.9457303676112502e-01  4.1481159923162803e-01  5.8075937042316461e-01  1.6052354258620025e-01  1.6704858293838425e+00  2.2027442787606366e-01  5.4185652901982417e-01  4.7943629111679231e-01  4.5398393113599239e-01  4.7227551097473530e-01  4.7927933858991878e-01  4.8697947142192505e-01  4.9195975694345601e-01  4.9561943530080244e-01  4.9773128517131876e-01  4.9892787778837694e-01  4.9950568374454329e-01  4.9975375292127500e-01  4.9981690436807541e-01  4.9977550683046240e-01  4.9965253837017115e-01  4.9947162840058551e-01  4.9917135140065000e-01  4.9896019186491669e-01  4.9858925090474898e-01  4.9866792421617595e-01  4.9909726697266193e-01  5.0018026239408298e-01  5.0219465464639435e-01  5.0384137938703144e-01  5.0416488653698022e-01  5.0324952465600470e-01  5.0194573299739143e-01  5.0083189324641697e-01  5.0008320759776637e-01  4.9966384188298818e-01  4.9947447493944097e-01  4.9942122294502045e-01  4.9943595175216415e-01  4.9947510782056104e-01  4.9950288945082516e-01  4.9948973498973009e-01  4.9934218585711621e-01  4.9901488007534567e-01  4.9805316833882568e-01  4.9683012677803573e-01  4.9290529718342380e-01  4.9173457016614086e-01  4.7657709231090806e-01  4.9459809631309715e-01  4.1494463184865593e-01  5.8086129878445780e-01  1.6104450242874391e-01  1.6711003883106212e+00  2.2037616553046419e-01  5.4202031496339964e-01  4.7954150244521654e-01  4.5403752075058890e-01  4.7230212869669330e-01  4.7929062514527165e-01  4.8698735354917905e-01  4.9196717881767205e-01  4.9563318355480629e-01  4.9775392335705915e-01  4.9896262251767992e-01  4.9955497842024688e-01  4.9982017641962989e-01  4.9990203273669609e-01  4.9987767086880802e-01  4.9976573313983957e-01  4.9957031112447786e-01  4.9922501741511849e-01  4.9896439288347066e-01  4.9822082422750819e-01  4.9850098528409609e-01  4.9855837279078957e-01  5.0060949770557439e-01  5.0463925892783368e-01  5.0673501026763179e-01  5.0588150804688237e-01  5.0310722015587739e-01  5.0067197902190586e-01  4.9920825396834212e-01  4.9855641322709732e-01  4.9841100593087878e-01  4.9852173433837693e-01  4.9872870520519086e-01  4.9894500321197249e-01  4.9913051851172024e-01  4.9926063306271423e-01  4.9931764614999280e-01  4.9921814257064573e-01  4.9892387533061056e-01  4.9798608819500478e-01  4.9678009574801946e-01  4.9287223758167154e-01  4.9171325223703288e-01  4.7658479065599574e-01  4.9461552343359388e-01  4.1504462158630956e-01  5.8093784275131155e-01  1.6144693089604431e-01  1.6715629431485650e+00  2.2044423442182029e-01  5.4212917725362286e-01  4.7961278854348433e-01  4.5407324567312185e-01  4.7232045594468269e-01  4.7929909780369329e-01  4.8699474495077660e-01  4.9197551116812899e-01  4.9564803163614701e-01  4.9777803597241482e-01  4.9899999032062903e-01  4.9960995182369189e-01  4.9989868432997769e-01  5.0001126551522257e-01  5.0002535236082557e-01  4.9995910702259305e-01  4.9980375710491187e-01  4.9950778079243757e-01  4.9920103978280356e-01  4.9817807782043871e-01  4.9898655043827822e-01  4.9750063288752078e-01  5.0254754463449358e-01  5.0952986658086308e-01  5.1028960596356399e-01  5.0621545413740243e-01  5.0014265132226765e-01  4.9695221161810260e-01  4.9586473936221676e-01  4.9599046715663792e-01  4.9658461630974288e-01  4.9727387171841925e-01  4.9789617192075480e-01  4.9839608806436242e-01  4.9876901156616871e-01  4.9902049150873851e-01  4.9915542601956409e-01  4.9910616982044220e-01  4.9884473560976372e-01  4.9792936550572353e-01  4.9673893688772369e-01  4.9284494158272457e-01  4.9169610904303113e-01  4.7658824815300366e-01  4.9462804252057896e-01  4.1511350880376213e-01  5.8099372362865453e-01  1.6173360978258178e-01  1.6718845810553720e+00  2.2048427336431711e-01  5.4219214649259495e-01  4.7965343971680452e-01  4.5409281716059319e-01  4.7233095780143408e-01  4.7930416556193872e-01  4.8700005178337108e-01  4.9198205858428096e-01  4.9565965837946907e-01  4.9779682871201414e-01  4.9902938275949110e-01  4.9965419549628293e-01  4.9996414594757316e-01  5.0010693128800132e-01  5.0016368562959335e-01  5.0015705866225191e-01  5.0007933213035283e-01  4.9989700552932076e-01  4.9960783708222833e-01  4.9878088607864474e-01  4.9965176419247814e-01  4.9447579799713937e-01  5.0573152954339018e-01  5.1316526675641727e-01  5.0950823685186675e-01  5.0185130229996200e-01  4.9088076125075331e-01  4.8962369126250527e-01  4.9103491219038081e-01  4.9288558380189523e-01  4.9464476612831870e-01  4.9607294504673677e-01  4.9715389280476413e-01  4.9793618491053987e-01  4.9848175343532025e-01  4.9883829321550832e-01  4.9903722019080227e-01  4.9902729851173649e-01  4.9879058853671060e-01  4.9789129764392359e-01  4.9671202968065353e-01  4.9282687686394533e-01  4.9168571475352923e-01  4.7658912267244746e-01  4.9463768771828537e-01  4.1515251203249087e-01  5.8103210292367358e-01  1.6190540306196208e-01  1.6720719149194285e+00  2.2049972499132345e-01  5.4221455949753772e-01  4.7966524790967946e-01  4.5409714486556169e-01  4.7233376899758533e-01  4.7930528144805074e-01  4.8700196650894884e-01  4.9198457171084375e-01  4.9566430981627585e-01  4.9780413184401440e-01  4.9904063782751307e-01  4.9967094014015090e-01  4.9998884582950276e-01  5.0014316218829402e-01  5.0021670757727188e-01  5.0023454091630426e-01  5.0019116964594224e-01  5.0005973960455463e-01  4.9978842372042070e-01  4.9924952290095226e-01  4.9885622568070370e-01  4.9216183368450489e-01  5.0619584653240079e-01  5.0070256154135384e-01  5.0159738291027378e-01  4.9349101061844963e-01  4.6570798980333311e-01  4.7961449727374955e-01  4.8700682046310279e-01  4.9098826892837760e-01  4.9364843291437810e-01  4.9551956780189099e-01  4.9683679872409653e-01  4.9775085388018214e-01  4.9837157131583765e-01  4.9877132638571914e-01  4.9899530770972911e-01  4.9900003690963873e-01  4.9877229311652355e-01  4.9787841640393915e-01  4.9670342483335073e-01  4.9282060234403841e-01  4.9168385438349238e-01  4.7658858974934004e-01  4.9464568071974124e-01  4.1516239827266616