<?xml version="1.0"?>
<VTKFile type="UnstructuredGrid"  version="0.1"  >
<UnstructuredGrid>
<Piece  NumberOfPoints="1617" NumberOfCells="3072">
<Points>
<DataArray  type="Float64"  NumberOfComponents="3"  format="ascii">0 0 0  0.03125 0 0  0.0625 0 0  0.09375 0 0  0.125 0 0  0.15625 0 0  0.1875 0 0  0.21875 0 0  0.25 0 0  0.28125 0 0  0.3125 0 0  0.34375 0 0  0.375 0 0  0.40625 0 0  0.4375 0 0  0.46875 0 0  0.5 0 0  0.53125 0 0  0.5625 0 0  0.59375 0 0  0.625 0 0  0.65625 0 0  0.6875 0 0  0.71875 0 0  0.75 0 0  0.78125 0 0  0.8125 0 0  0.84375 0 0  0.875 0 0  0.90625 0 0  0.9375 0 0  0.96875 0 0  1 0 0  1.03125 0 0  1.0625 0 0  1.09375 0 0  1.125 0 0  1.15625 0 0  1.1875 0 0  1.21875 0 0  1.25 0 0  1.28125 0 0  1.3125 0 0  1.34375 0 0  1.375 0 0  1.40625 0 0  1.4375 0 0  1.46875 0 0  1.5 0 0  0 0.03125 0  0.03125 0.03125 0  0.0625 0.03125 0  0.09375 0.03125 0  0.125 0.03125 0  0.15625 0.03125 0  0.1875 0.03125 0  0.21875 0.03125 0  0.25 0.03125 0  0.28125 0.03125 0  0.3125 0.03125 0  0.34375 0.03125 0  0.375 0.03125 0  0.40625 0.03125 0  0.4375 0.03125 0  0.46875 0.03125 0  0.5 0.03125 0  0.53125 0.03125 0  0.5625 0.03125 0  0.59375 0.03125 0  0.625 0.03125 0  0.65625 0.03125 0  0.6875 0.03125 0  0.71875 0.03125 0  0.75 0.03125 0  0.78125 0.03125 0  0.8125 0.03125 0  0.84375 0.03125 0  0.875 0.03125 0  0.90625 0.03125 0  0.9375 0.03125 0  0.96875 0.03125 0  1 0.03125 0  1.03125 0.03125 0  1.0625 0.03125 0  1.09375 0.03125 0  1.125 0.03125 0  1.15625 0.03125 0  1.1875 0.03125 0  1.21875 0.03125 0  1.25 0.03125 0  1.28125 0.03125 0  1.3125 0.03125 0  1.34375 0.03125 0  1.375 0.03125 0  1.40625 0.03125 0  1.4375 0.03125 0  1.46875 0.03125 0  1.5 0.03125 0  0 0.0625 0  0.03125 0.0625 0  0.0625 0.0625 0  0.09375 0.0625 0  0.125 0.0625 0  0.15625 0.0625 0  0.1875 0.0625 0  0.21875 0.0625 0  0.25 0.0625 0  0.28125 0.0625 0  0.3125 0.0625 0  0.34375 0.0625 0  0.375 0.0625 0  0.40625 0.0625 0  0.4375 0.0625 0  0.46875 0.0625 0  0.5 0.0625 0  0.53125 0.0625 0  0.5625 0.0625 0  0.59375 0.0625 0  0.625 0.0625 0  0.65625 0.0625 0  0.6875 0.0625 0  0.71875 0.0625 0  0.75 0.0625 0  0.78125 0.0625 0  0.8125 0.0625 0  0.84375 0.0625 0  0.875 0.0625 0  0.90625 0.0625 0  0.9375 0.0625 0  0.96875 0.0625 0  1 0.0625 0  1.03125 0.0625 0  1.0625 0.0625 0  1.09375 0.0625 0  1.125 0.0625 0  1.15625 0.0625 0  1.1875 0.0625 0  1.21875 0.0625 0  1.25 0.0625 0  1.28125 0.0625 0  1.3125 0.0625 0  1.34375 0.0625 0  1.375 0.0625 0  1.40625 0.0625 0  1.4375 0.0625 0  1.46875 0.0625 0  1.5 0.0625 0  0 0.09375 0  0.03125 0.09375 0  0.0625 0.09375 0  0.09375 0.09375 0  0.125 0.09375 0  0.15625 0.09375 0  0.1875 0.09375 0  0.21875 0.09375 0  0.25 0.09375 0  0.28125 0.09375 0  0.3125 0.09375 0  0.34375 0.09375 0  0.375 0.09375 0  0.40625 0.09375 0  0.4375 0.09375 0  0.46875 0.09375 0  0.5 0.09375 0  0.53125 0.09375 0  0.5625 0.09375 0  0.59375 0.09375 0  0.625 0.09375 0  0.65625 0.09375 0  0.6875 0.09375 0  0.71875 0.09375 0  0.75 0.09375 0  0.78125 0.09375 0  0.8125 0.09375 0  0.84375 0.09375 0  0.875 0.09375 0  0.90625 0.09375 0  0.9375 0.09375 0  0.96875 0.09375 0  1 0.09375 0  1.03125 0.09375 0  1.0625 0.09375 0  1.09375 0.09375 0  1.125 0.09375 0  1.15625 0.09375 0  1.1875 0.09375 0  1.21875 0.09375 0  1.25 0.09375 0  1.28125 0.09375 0  1.3125 0.09375 0  1.34375 0.09375 0  1.375 0.09375 0  1.40625 0.09375 0  1.4375 0.09375 0  1.46875 0.09375 0  1.5 0.09375 0  0 0.125 0  0.03125 0.125 0  0.0625 0.125 0  0.09375 0.125 0  0.125 0.125 0  0.15625 0.125 0  0.1875 0.125 0  0.21875 0.125 0  0.25 0.125 0  0.28125 0.125 0  0.3125 0.125 0  0.34375 0.125 0  0.375 0.125 0  0.40625 0.125 0  0.4375 0.125 0  0.46875 0.125 0  0.5 0.125 0  0.53125 0.125 0  0.5625 0.125 0  0.59375 0.125 0  0.625 0.125 0  0.65625 0.125 0  0.6875 0.125 0  0.71875 0.125 0  0.75 0.125 0  0.78125 0.125 0  0.8125 0.125 0  0.84375 0.125 0  0.875 0.125 0  0.90625 0.125 0  0.9375 0.125 0  0.96875 0.125 0  1 0.125 0  1.03125 0.125 0  1.0625 0.125 0  1.09375 0.125 0  1.125 0.125 0  1.15625 0.125 0  1.1875 0.125 0  1.21875 0.125 0  1.25 0.125 0  1.28125 0.125 0  1.3125 0.125 0  1.34375 0.125 0  1.375 0.125 0  1.40625 0.125 0  1.4375 0.125 0  1.46875 0.125 0  1.5 0.125 0  0 0.15625 0  0.03125 0.15625 0  0.0625 0.15625 0  0.09375 0.15625 0  0.125 0.15625 0  0.15625 0.15625 0  0.1875 0.15625 0  0.21875 0.15625 0  0.25 0.15625 0  0.28125 0.15625 0  0.3125 0.15625 0  0.34375 0.15625 0  0.375 0.15625 0  0.40625 0.15625 0  0.4375 0.15625 0  0.46875 0.15625 0  0.5 0.15625 0  0.53125 0.15625 0  0.5625 0.15625 0  0.59375 0.15625 0  0.625 0.15625 0  0.65625 0.15625 0  0.6875 0.15625 0  0.71875 0.15625 0  0.75 0.15625 0  0.78125 0.15625 0  0.8125 0.15625 0  0.84375 0.15625 0  0.875 0.15625 0  0.90625 0.15625 0  0.9375 0.15625 0  0.96875 0.15625 0  1 0.15625 0  1.03125 0.15625 0  1.0625 0.15625 0  1.09375 0.15625 0  1.125 0.15625 0  1.15625 0.15625 0  1.1875 0.15625 0  1.21875 0.15625 0  1.25 0.15625 0  1.28125 0.15625 0  1.3125 0.15625 0  1.34375 0.15625 0  1.375 0.15625 0  1.40625 0.15625 0  1.4375 0.15625 0  1.46875 0.15625 0  1.5 0.15625 0  0 0.1875 0  0.03125 0.1875 0  0.0625 0.1875 0  0.09375 0.1875 0  0.125 0.1875 0  0.15625 0.1875 0  0.1875 0.1875 0  0.21875 0.1875 0  0.25 0.1875 0  0.28125 0.1875 0  0.3125 0.1875 0  0.34375 0.1875 0  0.375 0.1875 0  0.40625 0.1875 0  0.4375 0.1875 0  0.46875 0.1875 0  0.5 0.1875 0  0.53125 0.1875 0  0.5625 0.1875 0  0.59375 0.1875 0  0.625 0.1875 0  0.65625 0.1875 0  0.6875 0.1875 0  0.71875 0.1875 0  0.75 0.1875 0  0.78125 0.1875 0  0.8125 0.1875 0  0.84375 0.1875 0  0.875 0.1875 0  0.90625 0.1875 0  0.9375 0.1875 0  0.96875 0.1875 0  1 0.1875 0  1.03125 0.1875 0  1.0625 0.1875 0  1.09375 0.1875 0  1.125 0.1875 0  1.15625 0.1875 0  1.1875 0.1875 0  1.21875 0.1875 0  1.25 0.1875 0  1.28125 0.1875 0  1.3125 0.1875 0  1.34375 0.1875 0  1.375 0.1875 0  1.40625 0.1875 0  1.4375 0.1875 0  1.46875 0.1875 0  1.5 0.1875 0  0 0.21875 0  0.03125 0.21875 0  0.0625 0.21875 0  0.09375 0.21875 0  0.125 0.21875 0  0.15625 0.21875 0  0.1875 0.21875 0  0.21875 0.21875 0  0.25 0.21875 0  0.28125 0.21875 0  0.3125 0.21875 0  0.34375 0.21875 0  0.375 0.21875 0  0.40625 0.21875 0  0.4375 0.21875 0  0.46875 0.21875 0  0.5 0.21875 0  0.53125 0.21875 0  0.5625 0.21875 0  0.59375 0.21875 0  0.625 0.21875 0  0.65625 0.21875 0  0.6875 0.21875 0  0.71875 0.21875 0  0.75 0.21875 0  0.78125 0.21875 0  0.8125 0.21875 0  0.84375 0.21875 0  0.875 0.21875 0  0.90625 0.21875 0  0.9375 0.21875 0  0.96875 0.21875 0  1 0.21875 0  1.03125 0.21875 0  1.0625 0.21875 0  1.09375 0.21875 0  1.125 0.21875 0  1.15625 0.21875 0  1.1875 0.21875 0  1.21875 0.21875 0  1.25 0.21875 0  1.28125 0.21875 0  1.3125 0.21875 0  1.34375 0.21875 0  1.375 0.21875 0  1.40625 0.21875 0  1.4375 0.21875 0  1.46875 0.21875 0  1.5 0.21875 0  0 0.25 0  0.03125 0.25 0  0.0625 0.25 0  0.09375 0.25 0  0.125 0.25 0  0.15625 0.25 0  0.1875 0.25 0  0.21875 0.25 0  0.25 0.25 0  0.28125 0.25 0  0.3125 0.25 0  0.34375 0.25 0  0.375 0.25 0  0.40625 0.25 0  0.4375 0.25 0  0.46875 0.25 0  0.5 0.25 0  0.53125 0.25 0  0.5625 0.25 0  0.59375 0.25 0  0.625 0.25 0  0.65625 0.25 0  0.6875 0.25 0  0.71875 0.25 0  0.75 0.25 0  0.78125 0.25 0  0.8125 0.25 0  0.84375 0.25 0  0.875 0.25 0  0.90625 0.25 0  0.9375 0.25 0  0.96875 0.25 0  1 0.25 0  1.03125 0.25 0  1.0625 0.25 0  1.09375 0.25 0  1.125 0.25 0  1.15625 0.25 0  1.1875 0.25 0  1.21875 0.25 0  1.25 0.25 0  1.28125 0.25 0  1.3125 0.25 0  1.34375 0.25 0  1.375 0.25 0  1.40625 0.25 0  1.4375 0.25 0  1.46875 0.25 0  1.5 0.25 0  0 0.28125 0  0.03125 0.28125 0  0.0625 0.28125 0  0.09375 0.28125 0  0.125 0.28125 0  0.15625 0.28125 0  0.1875 0.28125 0  0.21875 0.28125 0  0.25 0.28125 0  0.28125 0.28125 0  0.3125 0.28125 0  0.34375 0.28125 0  0.375 0.28125 0  0.40625 0.28125 0  0.4375 0.28125 0  0.46875 0.28125 0  0.5 0.28125 0  0.53125 0.28125 0  0.5625 0.28125 0  0.59375 0.28125 0  0.625 0.28125 0  0.65625 0.28125 0  0.6875 0.28125 0  0.71875 0.28125 0  0.75 0.28125 0  0.78125 0.28125 0  0.8125 0.28125 0  0.84375 0.28125 0  0.875 0.28125 0  0.90625 0.28125 0  0.9375 0.28125 0  0.96875 0.28125 0  1 0.28125 0  1.03125 0.28125 0  1.0625 0.28125 0  1.09375 0.28125 0  1.125 0.28125 0  1.15625 0.28125 0  1.1875 0.28125 0  1.21875 0.28125 0  1.25 0.28125 0  1.28125 0.28125 0  1.3125 0.28125 0  1.34375 0.28125 0  1.375 0.28125 0  1.40625 0.28125 0  1.4375 0.28125 0  1.46875 0.28125 0  1.5 0.28125 0  0 0.3125 0  0.03125 0.3125 0  0.0625 0.3125 0  0.09375 0.3125 0  0.125 0.3125 0  0.15625 0.3125 0  0.1875 0.3125 0  0.21875 0.3125 0  0.25 0.3125 0  0.28125 0.3125 0  0.3125 0.3125 0  0.34375 0.3125 0  0.375 0.3125 0  0.40625 0.3125 0  0.4375 0.3125 0  0.46875 0.3125 0  0.5 0.3125 0  0.53125 0.3125 0  0.5625 0.3125 0  0.59375 0.3125 0  0.625 0.3125 0  0.65625 0.3125 0  0.6875 0.3125 0  0.71875 0.3125 0  0.75 0.3125 0  0.78125 0.3125 0  0.8125 0.3125 0  0.84375 0.3125 0  0.875 0.3125 0  0.90625 0.3125 0  0.9375 0.3125 0  0.96875 0.3125 0  1 0.3125 0  1.03125 0.3125 0  1.0625 0.3125 0  1.09375 0.3125 0  1.125 0.3125 0  1.15625 0.3125 0  1.1875 0.3125 0  1.21875 0.3125 0  1.25 0.3125 0  1.28125 0.3125 0  1.3125 0.3125 0  1.34375 0.3125 0  1.375 0.3125 0  1.40625 0.3125 0  1.4375 0.3125 0  1.46875 0.3125 0  1.5 0.3125 0  0 0.34375 0  0.03125 0.34375 0  0.0625 0.34375 0  0.09375 0.34375 0  0.125 0.34375 0  0.15625 0.34375 0  0.1875 0.34375 0  0.21875 0.34375 0  0.25 0.34375 0  0.28125 0.34375 0  0.3125 0.34375 0  0.34375 0.34375 0  0.375 0.34375 0  0.40625 0.34375 0  0.4375 0.34375 0  0.46875 0.34375 0  0.5 0.34375 0  0.53125 0.34375 0  0.5625 0.34375 0  0.59375 0.34375 0  0.625 0.34375 0  0.65625 0.34375 0  0.6875 0.34375 0  0.71875 0.34375 0  0.75 0.34375 0  0.78125 0.34375 0  0.8125 0.34375 0  0.84375 0.34375 0  0.875 0.34375 0  0.90625 0.34375 0  0.9375 0.34375 0  0.96875 0.34375 0  1 0.34375 0  1.03125 0.34375 0  1.0625 0.34375 0  1.09375 0.34375 0  1.125 0.34375 0  1.15625 0.34375 0  1.1875 0.34375 0  1.21875 0.34375 0  1.25 0.34375 0  1.28125 0.34375 0  1.3125 0.34375 0  1.34375 0.34375 0  1.375 0.34375 0  1
[...]
<PointData  Scalars="f_81"> 
<DataArray  type="Float64"  Name="f_81"  format="ascii">6.7897402157588727e-01  2.9371902739186795e-01  3.0092106148038700e-01  3.4305474100347105e-01  3.5696119227729783e-01  3.6783463718702164e-01  3.7528216277337351e-01  3.8175799140250616e-01  3.8798348266464927e-01  3.9421008508945615e-01  4.0051782151749271e-01  4.0692764853979801e-01  4.1344684553314659e-01  4.2007948517592880e-01  4.2683018011907126e-01  4.3370487468404595e-01  4.4071099960172666e-01  4.4785727347713356e-01  4.5515326430915803e-01  4.6260874899176152e-01  4.7023291892579727e-01  4.7803351935166388e-01  4.8601604386481129e-01  4.9418312017541938e-01  5.0253420391950698e-01  5.1106564270616739e-01  5.1977109590269821e-01  5.2864221974813430e-01  5.3766948156615091e-01  5.4684295226556734e-01  5.5615297796492080e-01  5.6559062131677440e-01  5.7514798690315783e-01  5.8481808837279603e-01  5.9459529251217369e-01  6.0447353406094062e-01  6.1445000342838108e-01  6.2451253584839661e-01  6.3466902947160608e-01  6.4485403425468035e-01  6.5514924226843141e-01  6.6507878162394063e-01  6.7525387177839247e-01  6.8206994500191176e-01  6.8843353664141649e-01  6.5423379293460993e-01  6.6579472997080935e-01  7.1566504536050490e-01  3.3400819770358070e-01  1.5266320449947983e+00  2.8463953502550488e-01  5.1772824993128463e-01  4.9869167924314173e-01  5.1795874017312116e-01  5.2344399790625618e-01  5.2393940111489379e-01  5.2355118374110021e-01  5.2273670196016964e-01  5.2182455932401262e-01  5.2087275176755843e-01  5.1989688463813732e-01  5.1889950001492358e-01  5.1788105541332419e-01  5.1684169625425802e-01  5.1578151628333002e-01  5.1470058597638846e-01  5.1359879282479259e-01  5.1247562244445100e-01  5.1132989917414962e-01  5.1015954671556885e-01  5.0896143955521667e-01  5.0773141690788393e-01  5.0646450837491164e-01  5.0515537258709531e-01  5.0379888849324461e-01  5.0239078566728590e-01  5.0092817741166717e-01  4.9940988399984926e-01  4.9783648683723886e-01  4.9621013910279110e-01  4.9453417758257429e-01  4.9281270703055224e-01  4.9105003593134711e-01  4.8925057736829480e-01  4.8741766085906157e-01  4.8555536553122969e-01  4.8366160198872177e-01  4.8174263381216692e-01  4.7976203939420087e-01  4.7774405583389301e-01  4.7538516995162444e-01  4.7281858634189577e-01  4.6770913351058574e-01  4.5912966936791366e-01  4.2464685070500074e-01  4.1485960235023744e-01  4.4530272994688097e-01  1.3396815375491289e-01  1.6005521858156111e+00  1.3715110140596237e-01  5.4812389508964443e-01  4.4377790997029454e-01  4.9291036294967522e-01  4.9267690642257556e-01  4.9436038250070735e-01  4.9495792814127937e-01  4.9529647931150000e-01  4.9561929423481998e-01  4.9593030582868347e-01  4.9623835916693737e-01  4.9654138674287940e-01  4.9683917701842401e-01  4.9713155323572078e-01  4.9741860289731010e-01  4.9770051462289916e-01  4.9797754189350513e-01  4.9824998327441933e-01  4.9851816679426797e-01  4.9878243888761442e-01  4.9904314965731522e-01  4.9930062656934826e-01  4.9955513016284259e-01  4.9980679434835146e-01  5.0005556687076491e-01  5.0030117355093795e-01  5.0054312382642430e-01  5.0078075879582751e-01  5.0101332157604095e-01  5.0124003687192065e-01  5.0146015746061201e-01  5.0167304642496879e-01  5.0187808944217915e-01  5.0207501518872755e-01  5.0226303472793443e-01  5.0244311362477967e-01  5.0261129926381065e-01  5.0277490926848978e-01  5.0290088447344194e-01  5.0302750068681912e-01  5.0286406904971492e-01  5.0260379004708389e-01  4.9989532002705744e-01  4.9408338448493838e-01  4.6503466408362409e-01  4.6933480393733723e-01  5.0511165798755531e-01  2.0310562765813375e-01  1.6107245376379675e+00  1.2983595378329080e-01  5.7982061417726538e-01  4.3372150664002007e-01  5.0831864636739876e-01  4.9636085922819273e-01  5.0033253331840200e-01  5.0017891766924194e-01  5.0029766979091816e-01  5.0031330346647385e-01  5.0031240275783073e-01  5.0030553399687538e-01  5.0029344948047660e-01  5.0027737038306141e-01  5.0025760081661141e-01  5.0023459128441472e-01  5.0020884740328997e-01  5.0018102173691503e-01  5.0015188479518846e-01  5.0012227486122240e-01  5.0009300862715378e-01  5.0006476332190553e-01  5.0003794008913927e-01  5.0001253480373120e-01  4.9998805605809271e-01  4.9996353495974966e-01  4.9993765238907373e-01  4.9990896254857914e-01  4.9987614394895263e-01  4.9983819042166899e-01  4.9979450121657276e-01  4.9974484445211914e-01  4.9968930844071141e-01  4.9962807840921619e-01  4.9956164802485881e-01  4.9948989550717932e-01  4.9941431447620349e-01  4.9933143565406707e-01  4.9924897984153560e-01  4.9913515267085601e-01  4.9903018276305317e-01  4.9865372994328083e-01  4.9821618388468580e-01  4.9546871431103090e-01  4.8985806959690975e-01  4.6148023664185722e-01  4.6657985626398046e-01  5.0293052985173736e-01  1.9407233472031324e-01  1.6152430207633668e+00  1.3036941844014927e-01  5.8351214844952437e-01  4.2954320635860399e-01  5.1274404547171615e-01  4.9319765960734258e-01  5.0066095655483889e-01  4.9951619315153689e-01  4.9988935214198654e-01  4.9986328084372789e-01  4.9986875701998246e-01  4.9986301100719316e-01  4.9985537049608592e-01  4.9984605084163769e-01  4.9983532647215678e-01  4.9982354144713287e-01  4.9981125306527135e-01  4.9979930019716962e-01  4.9978877957809015e-01  4.9978099130889947e-01  4.9977731788867480e-01  4.9977904563848169e-01  4.9978712021882088e-01  4.9980188607463671e-01  4.9982288587949070e-01  4.9984882452132201e-01  4.9987777014295892e-01  4.9990755656519947e-01  4.9993623288040895e-01  4.9996238042803726e-01  4.9998522184612926e-01  5.0000452748930224e-01  5.0002048535065280e-01  5.0003341502361620e-01  5.0004394258701246e-01  5.0005207058019085e-01  5.0005940669439752e-01  5.0006257081745598e-01  5.0006935905917671e-01  5.0004777913317788e-01  5.0003829296998548e-01  4.9975904286150313e-01  4.9942699770409626e-01  4.9678261279204194e-01  4.9136052390915935e-01  4.6337730433379198e-01  4.6925899058400122e-01  5.0690117653022948e-01  1.9687446593235533e-01  1.6173906385232819e+00  1.3087821548133544e-01  5.8475942040434981e-01  4.2961132743924835e-01  5.1382819950388336e-01  4.9222278614543913e-01  5.0166057578349732e-01  4.9950315102894788e-01  5.0022525774481630e-01  5.0008653216052046e-01  5.0009738449868513e-01  5.0007072725518220e-01  5.0004605698415616e-01  5.0001855040306586e-01  4.9998923262889633e-01  4.9995838366380518e-01  4.9992677946669206e-01  4.9989561699422114e-01  4.9986657068432327e-01  4.9984171129118038e-01  4.9982334140460849e-01  4.9981368217642214e-01  4.9981439704178021e-01  4.9982607807372476e-01  4.9984783452848863e-01  4.9987723278499857e-01  4.9991076026805537e-01  4.9994470194636298e-01  4.9997602377703088e-01  5.0000287249910724e-01  5.0002460056927234e-01  5.0004144995107025e-01  5.0005420057732564e-01  5.0006373449998631e-01  5.0007114036289924e-01  5.0007676153345582e-01  5.0008242623174359e-01  5.0008482983473657e-01  5.0009170614177245e-01  5.0007067011599626e-01  5.0006200085670727e-01  4.9978270329270430e-01  4.9945186347099502e-01  4.9680282462050818e-01  4.9138186841389803e-01  4.6347572771140921e-01  4.6958720973011081e-01  5.0793932431334832e-01  1.9762358737052366e-01  1.6185878139252123e+00  1.3074666842051508e-01  5.8493571170045200e-01  4.2924841677805470e-01  5.1365779404503409e-01  4.9188804935009772e-01  5.0180668665832517e-01  4.9917384249098962e-01  5.0020050579091369e-01  4.9996072122850205e-01  5.0001846680292328e-01  4.9999111990412115e-01  4.9997463855880092e-01  4.9995118147829837e-01  4.9992421211452004e-01  4.9989354894391824e-01  4.9986011445243983e-01  4.9982545905102416e-01  4.9979194575815483e-01  4.9976272835993646e-01  4.9974158952293640e-01  4.9973237737413356e-01  4.9973811143265801e-01  4.9975998339871547e-01  4.9979644785856375e-01  4.9984306948273333e-01  4.9989357581113597e-01  4.9994177040398186e-01  4.9998321041602345e-01  5.0001584392300602e-01  5.0003965670303752e-01  5.0005584531862790e-01  5.0006609190178042e-01  5.0007196014153010e-01  5.0007497372795284e-01  5.0007571114821869e-01  5.0007607664418530e-01  5.0007273102534022e-01  5.0007325735353481e-01  5.0004504927177507e-01  5.0002838470579303e-01  4.9974026851656178e-01  4.9940168366114429e-01  4.9673936929691237e-01  4.9130032355206033e-01  4.6341556281542290e-01  4.6965590476585090e-01  5.0841253697006383e-01  1.9780092430425328e-01  1.6194836217923048e+00  1.3058553405074541e-01  5.8512359611429310e-01  4.2912511997655906e-01  5.1373207404420240e-01  4.9191294809116221e-01  5.0186735600955046e-01  4.9913352814119560e-01  5.0028579732919520e-01  4.9996822777687733e-01  5.0006045563531965e-01  5.0001861779352963e-01  5.0000193686380012e-01  4.9997228345030942e-01  4.9993797940791979e-01  4.9989737057993450e-01  4.9985148789176514e-01  4.9980212531134660e-01  4.9975241225160172e-01  4.9970722117183075e-01  4.9967288630900963e-01  4.9965622302947277e-01  4.9966293393457140e-01  4.9969558509093781e-01  4.9975137797160751e-01  4.9982174800729845e-01  4.9989499797480902e-01  4.9996071261808456e-01  5.0001284077165831e-01  5.0005003386965097e-01  5.0007411330202922e-01  5.0008817958509655e-01  5.0009535180852493e-01  5.0009806883022079e-01  5.0009828272235446e-01  5.0009671436327785e-01  5.0009523708120196e-01  5.0009039858330662e-01  5.0008960653934953e-01  5.0006013180634623e-01  5.0004241620271717e-01  4.9975399399497011e-01  4.9941771856168954e-01  4.9675582320016248e-01  4.9131177925767067e-01  4.6344219763514954e-01  4.6978335726415782e-01  5.0890458063700672e-01  1.9818434907227311e-01  1.6202339358233551e+00  1.3041339612105585e-01  5.8529010734103626e-01  4.2902499577885400e-01  5.1378846507240739e-01  4.9190073919278748e-01  5.0187924224780145e-01  4.9913621046690393e-01  5.0031385834134567e-01  4.9996819246296476e-01  5.0008329782876093e-01  5.0003172826712594e-01  5.0001820731249602e-01  4.9998431226560669e-01  4.9994450319518008e-01  4.9989419123131296e-01  4.9983453156078889e-01  4.9976674290930279e-01  4.9969478741160905e-01  4.9962625862376298e-01  4.9957154305341117e-01  4.9954298264148372e-01  4.9955195966930288e-01  4.9960448138344060e-01  4.9969509348550439e-01  4.9980596370540159e-01  4.9991427538821948e-01  5.0000283241174892e-01  5.0006498197437022e-01  5.0010273014139939e-01  5.0012213657293891e-01  5.0012959813397395e-01  5.0013015033877029e-01  5.0012706977351207e-01  5.0012250664836866e-01  5.0011708364006591e-01  5.0011245787210790e-01  5.0010496475719302e-01  5.0010179161463353e-01  5.0007016142371019e-01  5.0005067543563719e-01  4.9976165798618433e-01  4.9942731138159985e-01  4.9676688247486472e-01  4.9131863192601405e-01  4.6345478064525580e-01  4.6986523899982163e-01  5.0927756649468525e-01  1.9846991673323183e-01  1.6208779189190596e+00  1.3024026915571529e-01  5.8544514651686563e-01  4.2893906842843021e-01  5.1384163778499214e-01  4.9189666360458900e-01  5.0190686199487189e-01  4.9915094306774666e-01  5.0033382547126348e-01  4.9998547971231949e-01  5.0011089175883172e-01  5.0005583553537525e-01  5.0004606799602935e-01  5.0000936133066720e-01  4.9996492549068533e-01  4.9990402106658138e-01  4.9982761072898280e-01  4.9973399631898102e-01  4.9962882891706911e-01  4.9952245643945736e-01  4.9943118333989961e-01  4.9937867680885362e-01  4.9938921038904199e-01  4.9947819670445820e-01  4.9963331472069178e-01  4.9981374407348161e-01  4.9997343131407407e-01  5.0008649166551777e-01  5.0015105683257788e-01  5.0017893949172754e-01  5.0018446414074780e-01  5.0017866968617386e-01  5.0016835163015427e-01  5.0015695835893192e-01  5.0014619488978873e-01  5.0013612801643625e-01  5.0012792175986376e-01  5.0011756144054553e-01  5.0011195655754404e-01  5.0007830295398703e-01  5.0005731814282195e-01  4.9976818623792885e-01  4.9943601574497726e-01  4.9677825862895775e-01  4.9132748013468186e-01  4.6346586363643993e-01  4.6992936982628780e-01  5.0959147643508296e-01  1.9872165847928117e-01  1.6214270592939326e+00  1.3007231424200114e-01  5.8558966076808827e-01  4.2886594742717316e-01  5.1389571660223643e-01  4.9190032906148828e-01  5.0193876301029616e-01  4.9916815754071242e-01  5.0035917724858248e-01  5.0001338014589392e-01  5.0014472905960927e-01  5.0009225036648586e-01  5.0008759961043148e-01  5.0005173224868449e-01  5.0000554657511076e-01  4.9993564974440013e-01  4.9984115381636790e-01  4.9971328156299766e-01  4.9956123226708976e-01  4.9939099448839291e-01  4.9923049918163753e-01  4.9912696116721295e-01  4.9913612358909321e-01  4.9930093810101867e-01  4.9958507347991277e-01  4.9988665028785240e-01  5.0011374616489668e-01  5.0023891494775286e-01  5.0028309272555360e-01  5.0028070916973599e-01  5.0025858384785882e-01  5.0023184774923790e-01  5.0020697684888715e-01  5.0018580782202471e-01  5.0016845375389773e-01  5.0015381328913644e-01  5.0014227334284755e-01  5.0012936398542340e-01  5.0012168683164926e-01  5.0008642952507198e-01  5.0006437135196113e-01  4.9977555602004020e-01  4.9944562939044806e-01  4.9679122047728758e-01  4.9133935378458160e-01  4.6347812393610838e-01  4.6998267820945450e-01  5.0985840890764900e-01  1.9893959531532618e-01  1.6218866673007550e+00  1.2991535467170803e-01  5.8572065368540172e-01  4.2880240758207433e-01  5.1394662489027976e-01  4.9190547189473705e-01  5.0197002889726239e-01  4.9918762354302254e-01  5.0038865900350404e-01  5.0004618849135574e-01  5.0018509278612699e-01  5.0014004870267059e-01  5.0014416560860087e-01  5.0011558021874725e-01  5.0007440605370002e-01  5.0000249727731505e-01  4.9989327007219192e-01  4.9972598564219217e-01  4.9951091453012653e-01  4.9922545711264360e-01  4.9893277486548054e-01  4.9871593903674044e-01  4.9872218329774154e-01  4.9906894267092022e-01  4.9962353279562804e-01  5.0012490921498876e-01  5.0040609385122703e-01  5.0048826473014640e-01  5.0046093704705763e-01  5.0039633942412054e-01  5.0033172096386835e-01  5.0027895799814059e-01  5.0023897255169825e-01  5.0020899412115050e-01  5.0018627164778084e-01  5.0016810508241827e-01  5.0015403173440309e-01  5.0013917338082325e-01  5.0012989068234592e-01  5.0009341635977622e-01  5.0007057458601367e-01  4.9978222247472903e-01  4.9945429593565638e-01  4.9680330633006647e-01  4.9135131408391103e-01  4.6348947140435387e-01  4.7002606736496588e-01  5.1008212754587023e-01  1.9912358679049938e-01  1.6222599023642954e+00  1.2977471560996509e-01  5.8583523441758245e-01  4.2874786181607522e-01  5.1399291801107194e-01  4.9191117962658498e-01  5.0200025447224061e-01  4.9920856789320117e-01  5.0041999213194677e-01  5.0008227429911045e-01  5.0023150279496142e-01  5.0019793485594211e-01  5.0021647637294808e-01  5.0020419406805772e-01  5.0017987764139349e-01  5.0012078466000820e-01  5.0001021578493199e-01  4.9981071942848160e-01  4.9951229499994110e-01  4.9902296406315005e-01  4.9849233381930402e-01  4.9801627174463531e-01  4.9805728553953699e-01  4.9886413167010413e-01  4.9996123913806650e-01  5.0072569277155643e-01  5.0092394608484481e-01  5.0081384996439648e-01  5.0063346774729800e-01  5.0048206551311047e-01  5.0037449874985929e-01  5.0030292693034728e-01  5.0025501336238454e-01  5.0022162491290501e-01  5.0019711967775704e-01  5.0017770201307843e-01  5.0016253207781536e-01  5.0014665710481621e-01  5.0013640867545150e-01  5.0009917319585839e-01  5.0007584863687049e-01  4.9978802868206623e-01  4.9946179892642645e-01  4.9681399928604641e-01  4.9136260769648471e-01  4.6349980044954470e-01  4.7006155054703158e-01  5.1026534875385554e-01  1.9927500467996090e-01  1.6225488912493984e+00  1.2965522638846569e-01  5.8593075356176072e-01  4.2870241495284639e-01  5.1403317857664865e-01  4.9191651938563247e-01  5.0202762017256775e-01  4.9922857469126602e-01  5.0045026191249342e-01  5.0011853432131936e-01  5.0027990214342721e-01  5.0026111198916801e-01  5.0030011625243231e-01  5.0031460640600978e-01  5.0032429978303994e-01  5.0030500599315597e-01  5.0023157408083418e-01  5.0004733224616948e-01  4.9968205414945349e-01  4.9894553053601481e-01  4.9807248479616023e-01  4.9703000900250255e-01  4.9720118947789732e-01  4.9894925053804179e-01  5.0109085116441809e-01  5.0202748807961184e-01  5.0158764683360157e-01  5.0098237810677893e-01  5.0061264395631333e-01  5.0042909687429504e-01  5.0033572348495448e-01  5.0028147194821837e-01  5.0024615864157429e-01  5.0022025049142227e-01  5.0019971145420605e-01  5.0018212545587160e-01  5.0016757746206286e-01  5.0015169863706233e-01  5.0014112929522125e-01  5.0010354959389136e-01  5.0007999010255166e-01  4.9979266483065277e-01  4.9946775550625594e-01  4.9682262914158137e-01  4.9137230227656392e-01  4.6350860053300724e-01  4.7009000225129610e-01  5.1040838226808882e-01  1.9939360575597531e-01  1.6227551311956583e+00  1.2956105280291463e-01  5.8600475589559120e-01  4.2866638693212239e-01  5.1406598450147323e-01  4.9192055926938572e-01  5.0205010836106556e-01  4.9924521496516333e-01  5.0047611282041982e-01  5.0015036168485250e-01  5.0032381868082132e-01  5.0032097097787054e-01  5.0038397400194179e-01  5.0043378639954217e-01  5.0049633327231158e-01  5.0055530268364767e-01  5.0059129036506345e-01  5.0053898886269788e-01  5.0025241694089839e-01  4.9942520642260491e-01  4.9807098434660380e-01  4.9564502478500760e-01  4.9570433295508615e-01  4.9981346683164984e-01  5.0414951662422325e-01  5.0457572940091167e-01  5.0217930209889916e-01  5.0038602983669656e-01  5.0001707689018049e-01  5.0006656832329743e-01  5.0015280231465742e-01  5.0019779592326996e-01  5.0020994039162314e-01  5.0020589185163911e-01  5.0019537533157299e-01  5.0018232745757329e-01  5.0016973722080826e-01  5.0015459309122279e-01  5.0014416923505522e-01  5.0010653601033228e-01  5.0008290193362559e-01  4.9979593158170688e-01  4.9947190514472684e-01  4.9682869944603625e-01  4.9137967859647042e-01  4.6351547958427808e-01  4.7011200514897028e-01  5.1051081332436210e-01  1.9947904050006524e-01  1.6228796254083027e+00  1.2949545838605744e-01  5.8605510792419890e-01  4.2864014410333873e-01  5.1409004494594768e-01  4.9192249905647972e-01  5.0206585629690037e-01  4.9925615274523283e-01  5.0049395017946019e-01  5.0017249265925301e-01  5.0035532608061029e-01  5.0036548633031452e-01  5.0044953943347636e-01  5.0053337269162068e-01  5.0065319998670788e-01  5.0081010580518814e-01  5.0101193917329800e-01  5.0123020067391544e-01  5.0135480612106509e-01  5.0115761875280074e-01  5.0045893492750759e-01  4.9796976452303099e-01  4.9665086163059463e-01  5.0300144620532727e-01  5.1385069691418417e-01  5.1314480244119964e-01  4.9982025085682152e-01  4.9891709931502304e-01  4.9865959300371243e-01  4.9935424311418075e-01  4.9983959215097784e-01  5.0007250235298972e-01  5.0016098377146689e-01  5.0018716171860500e-01  5.0018873257641983e-01  5.0018071156522936e-01  5.0017023796255011e-01  5.0015594901752458e-01  5.0014580845088485e-01  5.0010822487775564e-01  5.0008456604226348e-01  4.9979771429794567e-01  4.9947407332350341e-01  4.9683185085265424e-01  4.9138419827726565e-01  4.6352015414048969e-01  4.7012791430672241e-01  5.1057198297850370e-01  1.9953091967931844e-01  1.6229228955162636e+00  1.2946057699179359e-01  5.8608022624002587e-01  4.2862403902967644e-01  5.1410440513057798e-01  4.9192181933014001e-01  5.0207348315757905e-01  4.9925961852029205e-01  5.0050090262181912e-01  5.0018052973659755e-01  5.0036727085274990e-01  5.0038262034900149e-01  5.0047562958590219e-01  5.0057447727834259e-01  5.0072073585260057e-01  5.0092501958756586e-01  5.0121346956172286e-01  5.0159648304648341e-01  5.0205306504755542e-01  5.0256068911534280e-01  5.0321468862789542e-01  5.0317681750295618e-01  4.9965006040941429e-01  5.2373249323172277e-01  5.2048783401062004e-01  5.2427675206941415e-01  5.2091255017920490e-01  4.9340993007497902e-01  4.9751380617483654e-01  4.9879152511699776e-01  4.9963750123132972e-01  5.0000468005705845e-01  5.0013915607823234e-01  5.0017995292379736e-01  5.0018638034120189e-01  5.0018014962604485e-01  5.0017038327042429e-01  5.0015637211234143e-01  5.0014632154337202e-01  5.0010872024017361e-01  5.0008499118713423e-01  4.9979795041333874e-01  4.9947414477026242e-01  4.9683184733204866e-01  4.9138550539820602e-01  4.6352245960119498e