<?xml version="1.0"?>
<VTKFile type="UnstructuredGrid"  version="0.1"  >
<UnstructuredGrid>
<Piece  NumberOfPoints="1617" NumberOfCells="3072">
<Points>
<DataArray  type="Float64"  NumberOfComponents="3"  format="ascii">0 0 0  0.03125 0 0  0.0625 0 0  0.09375 0 0  0.125 0 0  0.15625 0 0  0.1875 0 0  0.21875 0 0  0.25 0 0  0.28125 0 0  0.3125 0 0  0.34375 0 0  0.375 0 0  0.40625 0 0  0.4375 0 0  0.46875 0 0  0.5 0 0  0.53125 0 0  0.5625 0 0  0.59375 0 0  0.625 0 0  0.65625 0 0  0.6875 0 0  0.71875 0 0  0.75 0 0  0.78125 0 0  0.8125 0 0  0.84375 0 0  0.875 0 0  0.90625 0 0  0.9375 0 0  0.96875 0 0  1 0 0  1.03125 0 0  1.0625 0 0  1.09375 0 0  1.125 0 0  1.15625 0 0  1.1875 0 0  1.21875 0 0  1.25 0 0  1.28125 0 0  1.3125 0 0  1.34375 0 0  1.375 0 0  1.40625 0 0  1.4375 0 0  1.46875 0 0  1.5 0 0  0 0.03125 0  0.03125 0.03125 0  0.0625 0.03125 0  0.09375 0.03125 0  0.125 0.03125 0  0.15625 0.03125 0  0.1875 0.03125 0  0.21875 0.03125 0  0.25 0.03125 0  0.28125 0.03125 0  0.3125 0.03125 0  0.34375 0.03125 0  0.375 0.03125 0  0.40625 0.03125 0  0.4375 0.03125 0  0.46875 0.03125 0  0.5 0.03125 0  0.53125 0.03125 0  0.5625 0.03125 0  0.59375 0.03125 0  0.625 0.03125 0  0.65625 0.03125 0  0.6875 0.03125 0  0.71875 0.03125 0  0.75 0.03125 0  0.78125 0.03125 0  0.8125 0.03125 0  0.84375 0.03125 0  0.875 0.03125 0  0.90625 0.03125 0  0.9375 0.03125 0  0.96875 0.03125 0  1 0.03125 0  1.03125 0.03125 0  1.0625 0.03125 0  1.09375 0.03125 0  1.125 0.03125 0  1.15625 0.03125 0  1.1875 0.03125 0  1.21875 0.03125 0  1.25 0.03125 0  1.28125 0.03125 0  1.3125 0.03125 0  1.34375 0.03125 0  1.375 0.03125 0  1.40625 0.03125 0  1.4375 0.03125 0  1.46875 0.03125 0  1.5 0.03125 0  0 0.0625 0  0.03125 0.0625 0  0.0625 0.0625 0  0.09375 0.0625 0  0.125 0.0625 0  0.15625 0.0625 0  0.1875 0.0625 0  0.21875 0.0625 0  0.25 0.0625 0  0.28125 0.0625 0  0.3125 0.0625 0  0.34375 0.0625 0  0.375 0.0625 0  0.40625 0.0625 0  0.4375 0.0625 0  0.46875 0.0625 0  0.5 0.0625 0  0.53125 0.0625 0  0.5625 0.0625 0  0.59375 0.0625 0  0.625 0.0625 0  0.65625 0.0625 0  0.6875 0.0625 0  0.71875 0.0625 0  0.75 0.0625 0  0.78125 0.0625 0  0.8125 0.0625 0  0.84375 0.0625 0  0.875 0.0625 0  0.90625 0.0625 0  0.9375 0.0625 0  0.96875 0.0625 0  1 0.0625 0  1.03125 0.0625 0  1.0625 0.0625 0  1.09375 0.0625 0  1.125 0.0625 0  1.15625 0.0625 0  1.1875 0.0625 0  1.21875 0.0625 0  1.25 0.0625 0  1.28125 0.0625 0  1.3125 0.0625 0  1.34375 0.0625 0  1.375 0.0625 0  1.40625 0.0625 0  1.4375 0.0625 0  1.46875 0.0625 0  1.5 0.0625 0  0 0.09375 0  0.03125 0.09375 0  0.0625 0.09375 0  0.09375 0.09375 0  0.125 0.09375 0  0.15625 0.09375 0  0.1875 0.09375 0  0.21875 0.09375 0  0.25 0.09375 0  0.28125 0.09375 0  0.3125 0.09375 0  0.34375 0.09375 0  0.375 0.09375 0  0.40625 0.09375 0  0.4375 0.09375 0  0.46875 0.09375 0  0.5 0.09375 0  0.53125 0.09375 0  0.5625 0.09375 0  0.59375 0.09375 0  0.625 0.09375 0  0.65625 0.09375 0  0.6875 0.09375 0  0.71875 0.09375 0  0.75 0.09375 0  0.78125 0.09375 0  0.8125 0.09375 0  0.84375 0.09375 0  0.875 0.09375 0  0.90625 0.09375 0  0.9375 0.09375 0  0.96875 0.09375 0  1 0.09375 0  1.03125 0.09375 0  1.0625 0.09375 0  1.09375 0.09375 0  1.125 0.09375 0  1.15625 0.09375 0  1.1875 0.09375 0  1.21875 0.09375 0  1.25 0.09375 0  1.28125 0.09375 0  1.3125 0.09375 0  1.34375 0.09375 0  1.375 0.09375 0  1.40625 0.09375 0  1.4375 0.09375 0  1.46875 0.09375 0  1.5 0.09375 0  0 0.125 0  0.03125 0.125 0  0.0625 0.125 0  0.09375 0.125 0  0.125 0.125 0  0.15625 0.125 0  0.1875 0.125 0  0.21875 0.125 0  0.25 0.125 0  0.28125 0.125 0  0.3125 0.125 0  0.34375 0.125 0  0.375 0.125 0  0.40625 0.125 0  0.4375 0.125 0  0.46875 0.125 0  0.5 0.125 0  0.53125 0.125 0  0.5625 0.125 0  0.59375 0.125 0  0.625 0.125 0  0.65625 0.125 0  0.6875 0.125 0  0.71875 0.125 0  0.75 0.125 0  0.78125 0.125 0  0.8125 0.125 0  0.84375 0.125 0  0.875 0.125 0  0.90625 0.125 0  0.9375 0.125 0  0.96875 0.125 0  1 0.125 0  1.03125 0.125 0  1.0625 0.125 0  1.09375 0.125 0  1.125 0.125 0  1.15625 0.125 0  1.1875 0.125 0  1.21875 0.125 0  1.25 0.125 0  1.28125 0.125 0  1.3125 0.125 0  1.34375 0.125 0  1.375 0.125 0  1.40625 0.125 0  1.4375 0.125 0  1.46875 0.125 0  1.5 0.125 0  0 0.15625 0  0.03125 0.15625 0  0.0625 0.15625 0  0.09375 0.15625 0  0.125 0.15625 0  0.15625 0.15625 0  0.1875 0.15625 0  0.21875 0.15625 0  0.25 0.15625 0  0.28125 0.15625 0  0.3125 0.15625 0  0.34375 0.15625 0  0.375 0.15625 0  0.40625 0.15625 0  0.4375 0.15625 0  0.46875 0.15625 0  0.5 0.15625 0  0.53125 0.15625 0  0.5625 0.15625 0  0.59375 0.15625 0  0.625 0.15625 0  0.65625 0.15625 0  0.6875 0.15625 0  0.71875 0.15625 0  0.75 0.15625 0  0.78125 0.15625 0  0.8125 0.15625 0  0.84375 0.15625 0  0.875 0.15625 0  0.90625 0.15625 0  0.9375 0.15625 0  0.96875 0.15625 0  1 0.15625 0  1.03125 0.15625 0  1.0625 0.15625 0  1.09375 0.15625 0  1.125 0.15625 0  1.15625 0.15625 0  1.1875 0.15625 0  1.21875 0.15625 0  1.25 0.15625 0  1.28125 0.15625 0  1.3125 0.15625 0  1.34375 0.15625 0  1.375 0.15625 0  1.40625 0.15625 0  1.4375 0.15625 0  1.46875 0.15625 0  1.5 0.15625 0  0 0.1875 0  0.03125 0.1875 0  0.0625 0.1875 0  0.09375 0.1875 0  0.125 0.1875 0  0.15625 0.1875 0  0.1875 0.1875 0  0.21875 0.1875 0  0.25 0.1875 0  0.28125 0.1875 0  0.3125 0.1875 0  0.34375 0.1875 0  0.375 0.1875 0  0.40625 0.1875 0  0.4375 0.1875 0  0.46875 0.1875 0  0.5 0.1875 0  0.53125 0.1875 0  0.5625 0.1875 0  0.59375 0.1875 0  0.625 0.1875 0  0.65625 0.1875 0  0.6875 0.1875 0  0.71875 0.1875 0  0.75 0.1875 0  0.78125 0.1875 0  0.8125 0.1875 0  0.84375 0.1875 0  0.875 0.1875 0  0.90625 0.1875 0  0.9375 0.1875 0  0.96875 0.1875 0  1 0.1875 0  1.03125 0.1875 0  1.0625 0.1875 0  1.09375 0.1875 0  1.125 0.1875 0  1.15625 0.1875 0  1.1875 0.1875 0  1.21875 0.1875 0  1.25 0.1875 0  1.28125 0.1875 0  1.3125 0.1875 0  1.34375 0.1875 0  1.375 0.1875 0  1.40625 0.1875 0  1.4375 0.1875 0  1.46875 0.1875 0  1.5 0.1875 0  0 0.21875 0  0.03125 0.21875 0  0.0625 0.21875 0  0.09375 0.21875 0  0.125 0.21875 0  0.15625 0.21875 0  0.1875 0.21875 0  0.21875 0.21875 0  0.25 0.21875 0  0.28125 0.21875 0  0.3125 0.21875 0  0.34375 0.21875 0  0.375 0.21875 0  0.40625 0.21875 0  0.4375 0.21875 0  0.46875 0.21875 0  0.5 0.21875 0  0.53125 0.21875 0  0.5625 0.21875 0  0.59375 0.21875 0  0.625 0.21875 0  0.65625 0.21875 0  0.6875 0.21875 0  0.71875 0.21875 0  0.75 0.21875 0  0.78125 0.21875 0  0.8125 0.21875 0  0.84375 0.21875 0  0.875 0.21875 0  0.90625 0.21875 0  0.9375 0.21875 0  0.96875 0.21875 0  1 0.21875 0  1.03125 0.21875 0  1.0625 0.21875 0  1.09375 0.21875 0  1.125 0.21875 0  1.15625 0.21875 0  1.1875 0.21875 0  1.21875 0.21875 0  1.25 0.21875 0  1.28125 0.21875 0  1.3125 0.21875 0  1.34375 0.21875 0  1.375 0.21875 0  1.40625 0.21875 0  1.4375 0.21875 0  1.46875 0.21875 0  1.5 0.21875 0  0 0.25 0  0.03125 0.25 0  0.0625 0.25 0  0.09375 0.25 0  0.125 0.25 0  0.15625 0.25 0  0.1875 0.25 0  0.21875 0.25 0  0.25 0.25 0  0.28125 0.25 0  0.3125 0.25 0  0.34375 0.25 0  0.375 0.25 0  0.40625 0.25 0  0.4375 0.25 0  0.46875 0.25 0  0.5 0.25 0  0.53125 0.25 0  0.5625 0.25 0  0.59375 0.25 0  0.625 0.25 0  0.65625 0.25 0  0.6875 0.25 0  0.71875 0.25 0  0.75 0.25 0  0.78125 0.25 0  0.8125 0.25 0  0.84375 0.25 0  0.875 0.25 0  0.90625 0.25 0  0.9375 0.25 0  0.96875 0.25 0  1 0.25 0  1.03125 0.25 0  1.0625 0.25 0  1.09375 0.25 0  1.125 0.25 0  1.15625 0.25 0  1.1875 0.25 0  1.21875 0.25 0  1.25 0.25 0  1.28125 0.25 0  1.3125 0.25 0  1.34375 0.25 0  1.375 0.25 0  1.40625 0.25 0  1.4375 0.25 0  1.46875 0.25 0  1.5 0.25 0  0 0.28125 0  0.03125 0.28125 0  0.0625 0.28125 0  0.09375 0.28125 0  0.125 0.28125 0  0.15625 0.28125 0  0.1875 0.28125 0  0.21875 0.28125 0  0.25 0.28125 0  0.28125 0.28125 0  0.3125 0.28125 0  0.34375 0.28125 0  0.375 0.28125 0  0.40625 0.28125 0  0.4375 0.28125 0  0.46875 0.28125 0  0.5 0.28125 0  0.53125 0.28125 0  0.5625 0.28125 0  0.59375 0.28125 0  0.625 0.28125 0  0.65625 0.28125 0  0.6875 0.28125 0  0.71875 0.28125 0  0.75 0.28125 0  0.78125 0.28125 0  0.8125 0.28125 0  0.84375 0.28125 0  0.875 0.28125 0  0.90625 0.28125 0  0.9375 0.28125 0  0.96875 0.28125 0  1 0.28125 0  1.03125 0.28125 0  1.0625 0.28125 0  1.09375 0.28125 0  1.125 0.28125 0  1.15625 0.28125 0  1.1875 0.28125 0  1.21875 0.28125 0  1.25 0.28125 0  1.28125 0.28125 0  1.3125 0.28125 0  1.34375 0.28125 0  1.375 0.28125 0  1.40625 0.28125 0  1.4375 0.28125 0  1.46875 0.28125 0  1.5 0.28125 0  0 0.3125 0  0.03125 0.3125 0  0.0625 0.3125 0  0.09375 0.3125 0  0.125 0.3125 0  0.15625 0.3125 0  0.1875 0.3125 0  0.21875 0.3125 0  0.25 0.3125 0  0.28125 0.3125 0  0.3125 0.3125 0  0.34375 0.3125 0  0.375 0.3125 0  0.40625 0.3125 0  0.4375 0.3125 0  0.46875 0.3125 0  0.5 0.3125 0  0.53125 0.3125 0  0.5625 0.3125 0  0.59375 0.3125 0  0.625 0.3125 0  0.65625 0.3125 0  0.6875 0.3125 0  0.71875 0.3125 0  0.75 0.3125 0  0.78125 0.3125 0  0.8125 0.3125 0  0.84375 0.3125 0  0.875 0.3125 0  0.90625 0.3125 0  0.9375 0.3125 0  0.96875 0.3125 0  1 0.3125 0  1.03125 0.3125 0  1.0625 0.3125 0  1.09375 0.3125 0  1.125 0.3125 0  1.15625 0.3125 0  1.1875 0.3125 0  1.21875 0.3125 0  1.25 0.3125 0  1.28125 0.3125 0  1.3125 0.3125 0  1.34375 0.3125 0  1.375 0.3125 0  1.40625 0.3125 0  1.4375 0.3125 0  1.46875 0.3125 0  1.5 0.3125 0  0 0.34375 0  0.03125 0.34375 0  0.0625 0.34375 0  0.09375 0.34375 0  0.125 0.34375 0  0.15625 0.34375 0  0.1875 0.34375 0  0.21875 0.34375 0  0.25 0.34375 0  0.28125 0.34375 0  0.3125 0.34375 0  0.34375 0.34375 0  0.375 0.34375 0  0.40625 0.34375 0  0.4375 0.34375 0  0.46875 0.34375 0  0.5 0.34375 0  0.53125 0.34375 0  0.5625 0.34375 0  0.59375 0.34375 0  0.625 0.34375 0  0.65625 0.34375 0  0.6875 0.34375 0  0.71875 0.34375 0  0.75 0.34375 0  0.78125 0.34375 0  0.8125 0.34375 0  0.84375 0.34375 0  0.875 0.34375 0  0.90625 0.34375 0  0.9375 0.34375 0  0.96875 0.34375 0  1 0.34375 0  1.03125 0.34375 0  1.0625 0.34375 0  1.09375 0.34375 0  1.125 0.34375 0  1.15625 0.34375 0  1.1875 0.34375 0  1.21875 0.34375 0  1.25 0.34375 0  1.28125 0.34375 0  1.3125 0.34375 0  1.34375 0.34375 0  1.375 0.34375 0  1
[...]
<PointData  Scalars="f_81"> 
<DataArray  type="Float64"  Name="f_81"  format="ascii">3.2049460542799640e-01  3.1961507845069537e-01  3.0923924222336052e-01  3.4125347684773216e-01  3.5768974491121214e-01  3.7149846624929600e-01  3.8167870121350544e-01  3.8956887383720684e-01  3.9635289863355161e-01  4.0268595133523255e-01  4.0888979667896463e-01  4.1509401669158041e-01  4.2134818840839938e-01  4.2767323463857049e-01  4.3408149816804353e-01  4.4058368031624945e-01  4.4719085570303446e-01  4.5391481358456409e-01  4.6076775218184940e-01  4.6776165460531577e-01  4.7490749295245588e-01  4.8221438806075378e-01  4.8968886828646407e-01  4.9733437209220421e-01  5.0515110696509447e-01  5.1313631017079442e-01  5.2128487027578385e-01  5.2959018862759366e-01  5.3804511347080819e-01  5.4664278027632229e-01  5.5537723441167897e-01  5.6424377690952088e-01  5.7323902910139235e-01  5.8236075178179447e-01  5.9160740121928745e-01  6.0097743808767889e-01  6.1046764229875927e-01  6.2007060450511020e-01  6.2976201252316677e-01  6.3947733125709727e-01  6.4899028634795108e-01  6.5773519580683149e-01  6.6426535543456244e-01  6.6581666867241396e-01  6.6335532120099527e-01  6.3367339184487026e-01  5.7436421380626923e-01  7.9008183862475678e-01  1.0638731345407113e+00  5.6009393652944861e-01  5.4519883584530160e-01  4.4499564168934053e-01  4.9681605705937998e-01  5.1084679782468756e-01  5.1937424477815886e-01  5.2357685799525122e-01  5.2503390719779830e-01  5.2502417605164786e-01  5.2439540629895565e-01  5.2353179960178720e-01  5.2257811890829309e-01  5.2158452290398427e-01  5.2056680522792698e-01  5.1953055348535127e-01  5.1847841742631040e-01  5.1741205707116711e-01  5.1633247069705757e-01  5.1523983441322063e-01  5.1413320397776285e-01  5.1301022160407139e-01  5.1186693334848155e-01  5.1069780820018096e-01  5.0949601809724887e-01  5.0825398124946719e-01  5.0696410006940507e-01  5.0561956233881489e-01  5.0421504494496538e-01  5.0274717809447844e-01  5.0121468955510928e-01  4.9961822896438940e-01  4.9795994204951666e-01  4.9624289504459412e-01  4.9447044691641939e-01  4.9264556938773474e-01  4.9077007951370122e-01  4.8884300049473994e-01  4.8685746719890605e-01  4.8478802845562891e-01  4.8256194682965714e-01  4.7995358052588716e-01  4.7641022877672773e-01  4.7065094209446218e-01  4.6079394451919586e-01  4.4690960771544652e-01  4.1890745820449099e-01  3.6582502750506518e-01  5.2018005458741012e-01  6.4881967495444182e-01  5.9162699017335552e-01  5.2553819220636999e-01  3.9297141122939366e-01  4.7025024512382541e-01  4.8150912416624769e-01  4.8904950444108070e-01  4.9429945845390977e-01  4.9677508739191029e-01  4.9777814893529204e-01  4.9822228569320659e-01  4.9846800484795378e-01  4.9865877799060931e-01  4.9883918295039620e-01  4.9902137855334155e-01  4.9920877430117638e-01  4.9940261454236506e-01  4.9960379003546673e-01  4.9981315906970819e-01  5.0003153419774760e-01  5.0025958794465797e-01  5.0049774251699108e-01  5.0074607000534199e-01  5.0100422240509834e-01  5.0127140958897864e-01  5.0154644082688349e-01  5.0182783830189526e-01  5.0211401532602140e-01  5.0240348915449440e-01  5.0269507944770930e-01  5.0298804332359681e-01  5.0328211933750455e-01  5.0357748371928113e-01  5.0387464056359987e-01  5.0417427225344924e-01  5.0447701106046750e-01  5.0478304982042987e-01  5.0509083867614957e-01  5.0539391669275879e-01  5.0566769400361278e-01  5.0583833787364241e-01  5.0567538757343489e-01  5.0463086724379469e-01  5.0145923729048403e-01  4.9461230829900582e-01  4.8415787623595163e-01  4.5970985821816723e-01  4.2059071129929204e-01  5.8649689021931684e-01  7.3388934637629011e-01  5.9708847330315906e-01  5.2316602774159993e-01  3.9325458927743079e-01  4.7909281774813728e-01  4.8368636108283314e-01  4.9084525867373502e-01  4.9667618052805784e-01  4.9894125683650453e-01  4.9981665173454626e-01  5.0013622408773428e-01  5.0025428400635641e-01  5.0031401174159762e-01  5.0035381140491142e-01  5.0038472744955220e-01  5.0040937784223760e-01  5.0042867678448333e-01  5.0044336833550451e-01  5.0045429761337468e-01  5.0046241730226360e-01  5.0046869018256479e-01  5.0047393701622045e-01  5.0047865008928405e-01  5.0048280161381475e-01  5.0048569513007601e-01  5.0048592091960364e-01  5.0048146789516901e-01  5.0047000068648217e-01  5.0044924036039162e-01  5.0041733074024275e-01  5.0037307563276157e-01  5.0031599488594514e-01  5.0024622430039112e-01  5.0016432571662428e-01  5.0007107597786704e-01  4.9996722036687852e-01  4.9985313191073361e-01  4.9972760663597265e-01  4.9958497627964749e-01  4.9940209286168735e-01  4.9910882773858917e-01  4.9848283806368060e-01  4.9700380490699964e-01  4.9349363951172542e-01  4.8655009219203493e-01  4.7656877282868948e-01  4.5279087721836464e-01  4.1350292305526415e-01  5.7679299051474742e-01  7.1383893117036079e-01  6.0159554175658458e-01  5.2583733215601658e-01  3.9605392265013833e-01  4.8157832777971749e-01  4.8248220498382138e-01  4.9073190273582712e-01  4.9658172614098073e-01  4.9846891607456884e-01  4.9930930103846038e-01  4.9957560917533039e-01  4.9966465686884476e-01  4.9969945732397814e-01  4.9971646509406575e-01  4.9972709472971771e-01  4.9973398549132192e-01  4.9973846781824560e-01  4.9974164518055181e-01  4.9974483889971633e-01  4.9974965461781617e-01  4.9975789505042811e-01  4.9977135530408839e-01  4.9979152348221395e-01  4.9981921690643988e-01  4.9985424344907237e-01  4.9989521971051137e-01  4.9993967965791847e-01  4.9998452086341566e-01  5.0002666798337714e-01  5.0006369789996752e-01  5.0009419601463068e-01  5.0011777303311389e-01  5.0013483245508106e-01  5.0014624002030994e-01  5.0015301969033299e-01  5.0015607676522023e-01  5.0015588368487096e-01  5.0015134737362987e-01  5.0013705103449724e-01  5.0009052115744645e-01  4.9994323255781731e-01  4.9947776281222894e-01  4.9818574335318450e-01  4.9492304232605877e-01  4.8834924570363542e-01  4.7888211469122616e-01  4.5597481625533903e-01  4.1764631499765625e-01  5.8255508466499650e-01  7.2275110267577891e-01  6.0419324840224198e-01  5.2766943845925185e-01  3.9739909303109228e-01  4.8230212665703170e-01  4.8247799480963771e-01  4.9153885847547696e-01  4.9694169354887419e-01  4.9868196300944123e-01  4.9957017540299531e-01  4.9979886387668365e-01  4.9987297291591665e-01  4.9988296242757013e-01  4.9987472619550127e-01  4.9985891022193740e-01  4.9983881611117598e-01  4.9981616010640101e-01  4.9979235806967209e-01  4.9976928108486524e-01  4.9974937893978078e-01  4.9973557341043207e-01  4.9973093643979816e-01  4.9973816646310915e-01  4.9975887098167021e-01  4.9979286330283373e-01  4.9983775016676718e-01  4.9988913603167695e-01  4.9994157110127974e-01  4.9998992638400425e-01  5.0003056321819384e-01  5.0006182637562546e-01  5.0008383486144770e-01  5.0009787345519829e-01  5.0010573137731118e-01  5.0010919993723635e-01  5.0010972279780830e-01  5.0010808734899947e-01  5.0010332878030561e-01  5.0009002650156786e-01  5.0004562982249123e-01  4.9990174817877470e-01  4.9944189087195612e-01  4.9816277883505511e-01  4.9493293365511448e-01  4.8845217030633681e-01  4.7913977519889356e-01  4.5655952027179569e-01  4.1851993576230756e-01  5.8391532039962235e-01  7.2425760164965425e-01  6.0572412862643399e-01  5.2879430534994920e-01  3.9778404402950174e-01  4.8247803943268441e-01  4.8258835225031682e-01  4.9177643966730727e-01  4.9686154864205162e-01  4.9868424215779050e-01  4.9960457371759520e-01  4.9981510977110077e-01  4.9989527736561840e-01  4.9989869075652271e-01  4.9988497366742513e-01  4.9986090810078115e-01  4.9983113736104129e-01  4.9979721216231310e-01  4.9976077936823371e-01  4.9972432874334288e-01  4.9969145881656912e-01  4.9966673998352651e-01  4.9965532498110143e-01  4.9966205025788918e-01  4.9969002925721612e-01  4.9973922012535865e-01  4.9980545493134881e-01  4.9988082541530693e-01  4.9995578218812048e-01  5.0002203149464686e-01  5.0007462163470939e-01  5.0011236014649929e-01  5.0013688175635140e-01  5.0015123896382441e-01  5.0015871220047814e-01  5.0016210550879103e-01  5.0016341368839423e-01  5.0016362166252881e-01  5.0016171831179901e-01  5.0015208235794717e-01  5.0011183884670563e-01  4.9997223932021634e-01  4.9951650163292194e-01  4.9824245537365341e-01  4.9502334184483759e-01  4.8858003332554956e-01  4.7933185127008887e-01  4.5694129160516239e-01  4.1918038392393092e-01  5.8519439614127022e-01  7.2610818470232663e-01  6.0660176338486638e-01  5.2948767031500954e-01  3.9786563602971659e-01  4.8260677004176583e-01  4.8263957513758543e-01  4.9179820756246811e-01  4.9681445735167679e-01  4.9872387284245573e-01  4.9962879529462345e-01  4.9983629771920035e-01  4.9992279471553619e-01  4.9992209280821742e-01  4.9990523452904084e-01  4.9987428661290562e-01  4.9983539780553105e-01  4.9978917572515513e-01  4.9973738452920002e-01  4.9968313982622753e-01  4.9963152785154397e-01  4.9958959773499062e-01  4.9956618475029785e-01  4.9957018693571692e-01  4.9960786332127799e-01  4.9967980965622583e-01  4.9977839428287063e-01  4.9988860635206445e-01  4.9999313250252975e-01  5.0007868933963728e-01  5.0013945437525020e-01  5.0017648550827420e-01  5.0019487015565967e-01  5.0020079906086834e-01  5.0019970280153836e-01  5.0019552307946058e-01  5.0019064558118065e-01  5.0018600018605786e-01  5.0018030055920626e-01  5.0016757399646450e-01  5.0012458205177546e-01  4.9998224691083482e-01  4.9952344852415625e-01  4.9824635675044132e-01  4.9502624647021887e-01  4.8859761587094896e-01  4.7937796209869227e-01  4.5710351914570996e-01  4.1953437247527497e-01  5.8602560388767200e-01  7.2749441404666237e-01  6.0716010855017333e-01  5.2997208935585460e-01  3.9785224248750373e-01  4.8268798625074710e-01  4.8261731835453769e-01  4.9178592366594392e-01  4.9680477799472095e-01  4.9874050199963760e-01  4.9963053846046884e-01  4.9984799692605936e-01  4.9993811082818962e-01  4.9993631361963442e-01  4.9991824745380797e-01  4.9988214351103677e-01  4.9983471902722926e-01  4.9977487569432205e-01  4.9970408711973996e-01  4.9962568005508756e-01  4.9954620236743330e-01  4.9947648719260906e-01  4.9943207111996407e-01  4.9942970522531782e-01  4.9948275456815067e-01  4.9959395336471901e-01  4.9974807903396967e-01  4.9991468647897636e-01  5.0006149395675203e-01  5.0016835064230658e-01  5.0023140542474598e-01  5.0025840368914842e-01  5.0026140508406047e-01  5.0025151906512921e-01  5.0023670836662626e-01  5.0022169347470613e-01  5.0020866871967695e-01  5.0019798161149887e-01  5.0018770085866127e-01  5.0017130368588192e-01  5.0012514890949911e-01  4.9997991595789182e-01  4.9951829115875229e-01  4.9823861815052001e-01  4.9501722410278354e-01  4.8859777237164981e-01  4.7939633481890526e-01  4.5720612539975614e-01  4.1978457662622382e-01  5.8666709524321570e-01  7.2864660227114419e-01  6.0755485450413438e-01  5.3034471832260588e-01  3.9782780421936376e-01  4.8276921021627034e-01  4.8260793963380938e-01  4.9180700270098759e-01  4.9682158123101550e-01  4.9876291732040473e-01  4.9965257620938885e-01  4.9987861088337576e-01  4.9996954437313612e-01  4.9996872184311142e-01  4.9995024981077901e-01  4.9990991966128301e-01  4.9985356553193994e-01  4.9977747620796054e-01  4.9968172090697882e-01  4.9956804595028304e-01  4.9944373992904817e-01  4.9932559794474718e-01  4.9924095609648278e-01  4.9922227379981515e-01  4.9930027664755416e-01  4.9948329318024021e-01  4.9973684176470495e-01  4.9999502388163841e-01  5.0019749457070217e-01  5.0031876723998225e-01  5.0036677864271217e-01  5.0036539700485128e-01  5.0033874135274126e-01  5.0030401648683731e-01  5.0027082887106089e-01  5.0024323622297873e-01  5.0022199547159985e-01  5.0020603087857474e-01  5.0019229424426326e-01  5.0017350365937974e-01  5.0012557989969131e-01  4.9997902401637001e-01  4.9951645636992981e-01  4.9823636491003376e-01  4.9501571268870709e-01  4.8860452180549557e-01  4.7941837020391176e-01  4.5729424544211089e-01  4.1998864715796819e-01  5.8719604132104952e-01  7.2964171969724978e-01  6.0784750160832479e-01  5.3063558220986817e-01  3.9780247814290726e-01  4.8284374158735083e-01  4.8260460044882603e-01  4.9183403051509927e-01  4.9683987381146483e-01  4.9878878627385353e-01  4.9968356769034300e-01  4.9991539448931788e-01  5.0000984847473628e-01  5.0001386229115674e-01  4.9999839625470305e-01  4.9995772923295612e-01  4.9989526381738825e-01  4.9980325502599171e-01  4.9967779124141437e-01  4.9951445846461007e-01  4.9932014859076551e-01  4.9911919297022195e-01  4.9895839513115575e-01  4.9890375236546036e-01  4.9902918931598922e-01  4.9935404592838739e-01  4.9979103871290925e-01  5.0019220603322123e-01  5.0045047378978280e-01  5.0055316244251891e-01  5.0054638669531604e-01  5.0048597927709471e-01  5.0041184523839000e-01  5.0034453563883041e-01  5.0029127384888317e-01  5.0025230716223212e-01  5.0022506277333401e-01  5.0020610814497668e-01  5.0019092156892164e-01  5.0017140114308434e-01  5.0012310101470592e-01  4.9997645594002355e-01  4.9951414879376888e-01  4.9823482506331107e-01  4.9501589423404485e-01  4.8861181913610185e-01  4.7943875291812488e-01  4.5736717849249853e-01  4.2015388455522173e-01  5.8762967330715987e-01  7.3048665119932810e-01  6.0806666407196719e-01  5.3086066652723085e-01  3.9777856493811581e-01  4.8290893220731490e-01  4.8260427888256496e-01  4.9186179585263351e-01  4.9686056735205969e-01  4.9881912668812234e-01  4.9971973554937038e-01  4.9995839796453878e-01  5.0006078401502752e-01  5.0007403889603907e-01  5.0006733525944380e-01  5.0003357633748968e-01  4.9997258343565021e-01  4.9987076245098072e-01  4.9971537789446174e-01  4.9948834662014563e-01  4.9919351292943692e-01  4.9885541853412463e-01  4.9855312587957229e-01  4.9842309585256350e-01  4.9864526715533281e-01  4.9925707574255906e-01  5.0002618932560439e-01  5.0061912597047231e-01  5.0087421388648112e-01  5.0086436000879675e-01  5.0072999429499676e-01  5.0057421862643947e-01  5.0044288608911591e-01  5.0034679086752143e-01  5.0028158788429267e-01  5.0023931714936321e-01  5.0021258488139586e-01  5.0019544796781612e-01  5.0018222000852541e-01  5.0016436608203685e-01  5.0011740648310798e-01  4.9997195455476140e-01  4.9951094074408164e-01  4.9823323945645859e-01  4.9501665372433079e-01  4.8861873872258638e-01  4.7945711514167455e-01  4.5742745596536355e-01  4.2028820034532427e-01  5.8798364278866988e-01  7.3119427053561437e-01  6.0822889835759508e-01  5.3103111430237393e-01  3.9775683501459291e-01  4.8296399218013097e-01  4.8260573682604146e-01  4.9188855855706365e-01  4.9688240340074930e-01  4.9885099853252018e-01  4.9975841346825234e-01  5.0000647119978636e-01  5.0012071896431320e-01  5.0014849787631255e-01  5.0015889363330202e-01  5.0014389296799078e-01  5.0009998609977457e-01  5.0000636297908996e-01  4.9983535221900449e-01  4.9954649957536962e-01  4.9912737908588539e-01  4.9857317386552630e-01  4.9802043119899425e-01  4.9773568920284589e-01  4.9816318596743991e-01  4.9934389018570502e-01  5.0067417764971733e-01  5.0143680133348745e-01  5.0146244744322643e-01  5.0113223253199768e-01  5.0077633204561034e-01  5.0051653276883745e-01  5.0035840380588203e-01  5.0026914924952659e-01  5.0022061676169594e-01  5.0019458528368088e-01  5.0018072052080764e-01  5.0017295486438051e-01  5.0016627652662582e-01  5.0015291578504983e-01  5.0010908344132021e-01  4.9996598852789198e-01  4.9950705864941231e-01  4.9823151446468378e-01  4.9501757927743673e-01  4.8862494185963906e-01  4.7947326818059210e-01  4.5747659678974983e-01  4.2039609527981853e-01  5.8826661789354318e-01  7.3177091453198340e-01  6.0834533590264839e-01  5.3115542447373443e-01  3.9773767182380004e-01  4.8300857498647781e-01  4.8260785990201782e-01  4.9191252509121258e-01  4.9690314170977457e-01  4.9888145955081936e-01  4.9979648197938764e-01  5.0005565287426146e-01  5.0018468986529685e-01  5.0023236799185067e-01  5.0026941916990453e-01  5.0028901828911898e-01  5.0028725897779314e-01  5.0023838546292076e-01  5.0009978875594374e-01  4.9980605087726948e-01  4.9930258289654855e-01  4.9851133707243178e-01  4.9762850937251391e-01  4.9703714986797809e-01  4.9775342010504203e-01  4.9988656897591072e-01  5.0216799908130694e-01  5.0282725252997929e-01  5.0198245681592157e-01  5.0100991575810716e-01  5.0038562628428540e-01  5.0012510509414221e-01  5.0005691258138429e-01  5.0006537494648240e-01  5.0009072229416396e-01  5.0011342409220205e-01  5.0012979375754696e-01  5.0014044416812897e-01  5.0014503032378832e-01  5.0013867201405726e-01  5.0009934065414530e-01  4.9995935954076109e-01  4.9950291055013318e-01  4.9822967767077614e-01  4.9501835748131684e-01  4.8863008516431949e-01  4.7948678681757495e-01  4.5751521005540202e-01  4.2048000076408754e-01  5.8848348488723778e-01  7.3221944694111329e-01  6.0842385242968355e-01  5.3124001182055436e-01  3.9772115913663214e-01  4.8304230616944982e-01  4.8260959065951736e-01  4.9193198587025078e-01  4.9692046142407115e-01  4.9890725794304741e-01  4.9982946359680824e-01  5.0009962627407956e-01  5.0024417597896353e-01  5.0031441896510098e-01  5.0038454562379997e-01  5.0045233088083130e-01  5.0051943202892057e-01  5.0056483567265886e-01  5.0054626439686156e-01  5.0038837630998423e-01  4.9998034479862619e-01  4.9912144332932484e-01  4.9787244404773701e-01  4.9641957087292388e-01  4.9694639012576225e-01  5.0105315329837063e-01  5.0519583261438183e-01  5.0525206982585413e-01  5.0228460619521598e-01  4.9976826451737194e-01  4.9919752290592129e-01  4.9923148216105057e-01  4.9948436631681364e-01  4.9972719586915781e-01  4.9989946986000078e-01  5.0000608797984658e-01  5.0006847503684060e-01  5.0010424254321639e-01  5.0012281547190407e-01  5.0012451592202511e-01  5.0009004993536477e-01  4.9995323062867592e-01  4.9949912906687760e-01  4.9822793643494090e-01  4.9501885160198744e-01  4.8863394748485461e-01  4.7949727653218388e-01  4.5754353597977254e-01  4.2054126802584174e-01  5.8863692910146259e-01  7.3254086649676042e-01  6.0846986992783070e-01  5.3128944941460376e-01  3.9770718212822148e-01  4.8306479046618922e-01  4.8260999824878531e-01  4.9194538259638365e-01  4.9693210749424904e-01  4.9892500556881864e-01  4.9985231200963409e-01  5.0013079494298407e-01  5.0028761961898738e-01  5.0037671119915950e-01  5.0047619477137717e-01  5.0059010914221236e-01  5.0072998614773612e-01  5.0088982692453343e-01  5.0104956669287970e-01  5.0116251536879275e-01  5.0113961190870115e-01  5.0082089276589736e-01  5.0027620516076388e-01  4.9930787844218560e-01  4.9800914896508985e-01  5.0403897712095802e-01  5.1431481380285049e-01  5.1304751987687347e-01  5.0026844004628568e-01  4.9807920872472278e-01  4.9712762177388503e-01  4.9798435164527810e-01  4.9878097410644656e-01  4.9935442620764225e-01  4.9970759817867016e-01  4.9990728519467442e-01  5.0001621326715040e-01  5.0007528014952285e-01  5.0010588237646703e-01  5.0011410108163035e-01  5.0008338070479830e-01  4.9994887887972284e-01  4.9949640958197805e-01  4.9822657090085087e-01  4.9501903267077607e-01  4.8863639680134435e-01  4.7950442542661531e-01  4.5756164325213305e-01  4.2058063643467763e-01  5.8872833039007000e-01  7.3273523050508116e-01  6.0848658281517432e-01  5.3130650954347824e-01  3.9769550063254405e-01  4.8307572242316021e-01  4.8260841407585159e-01  4.9195158153118673e-01  4.9693639096560549e-01  4.9893205400245821e-01  4.9986088044274379e-01  5.0014251079174921e-01  5.0030405958563551e-01  5.0040063626487818e-01  5.0051199448961570e-01  5.0064493013267475e-01  5.0081572482672665e-01  5.0102668072201184e-01  5.0127272943870382e-01  5.0153554261632727e-01  5.0179430782859002e-01  5.0208271439232743e-01  5.0282941763547329e-01  5.0434415669249044e-01  5.0061874169250309e-01  5.2439394245899118e-01  5.2151264369217187e-01  5.2377502907983420e-01  5.2176266212161204e-01  4.9347643617199327e-01  4.9588339424310346e-01  4.9717554306060863e-01  4.9838831544388806e-01  4.9917231990154426e-01  4.9962320886630113e-01  4.9986819544172728e-01  4.9999721162621091e-01  5.0006530608722621e-01  5.0010018722304661e-01  5.0011060046947742e-01  5.0008109539747225e-01  4.9994729784869829e-01  4.9949528452363928e-01  4.9822580605769923e-01  4.9501891168106232e-01  4.8863736244715733e-01  4.7950804033086314e-01  4.5756954541515327e