<?xml version="1.0"?>
<VTKFile type="UnstructuredGrid"  version="0.1"  >
<UnstructuredGrid>
<Piece  NumberOfPoints="1617" NumberOfCells="3072">
<Points>
<DataArray  type="Float64"  NumberOfComponents="3"  format="ascii">0 0 0  0.03125 0 0  0.0625 0 0  0.09375 0 0  0.125 0 0  0.15625 0 0  0.1875 0 0  0.21875 0 0  0.25 0 0  0.28125 0 0  0.3125 0 0  0.34375 0 0  0.375 0 0  0.40625 0 0  0.4375 0 0  0.46875 0 0  0.5 0 0  0.53125 0 0  0.5625 0 0  0.59375 0 0  0.625 0 0  0.65625 0 0  0.6875 0 0  0.71875 0 0  0.75 0 0  0.78125 0 0  0.8125 0 0  0.84375 0 0  0.875 0 0  0.90625 0 0  0.9375 0 0  0.96875 0 0  1 0 0  1.03125 0 0  1.0625 0 0  1.09375 0 0  1.125 0 0  1.15625 0 0  1.1875 0 0  1.21875 0 0  1.25 0 0  1.28125 0 0  1.3125 0 0  1.34375 0 0  1.375 0 0  1.40625 0 0  1.4375 0 0  1.46875 0 0  1.5 0 0  0 0.03125 0  0.03125 0.03125 0  0.0625 0.03125 0  0.09375 0.03125 0  0.125 0.03125 0  0.15625 0.03125 0  0.1875 0.03125 0  0.21875 0.03125 0  0.25 0.03125 0  0.28125 0.03125 0  0.3125 0.03125 0  0.34375 0.03125 0  0.375 0.03125 0  0.40625 0.03125 0  0.4375 0.03125 0  0.46875 0.03125 0  0.5 0.03125 0  0.53125 0.03125 0  0.5625 0.03125 0  0.59375 0.03125 0  0.625 0.03125 0  0.65625 0.03125 0  0.6875 0.03125 0  0.71875 0.03125 0  0.75 0.03125 0  0.78125 0.03125 0  0.8125 0.03125 0  0.84375 0.03125 0  0.875 0.03125 0  0.90625 0.03125 0  0.9375 0.03125 0  0.96875 0.03125 0  1 0.03125 0  1.03125 0.03125 0  1.0625 0.03125 0  1.09375 0.03125 0  1.125 0.03125 0  1.15625 0.03125 0  1.1875 0.03125 0  1.21875 0.03125 0  1.25 0.03125 0  1.28125 0.03125 0  1.3125 0.03125 0  1.34375 0.03125 0  1.375 0.03125 0  1.40625 0.03125 0  1.4375 0.03125 0  1.46875 0.03125 0  1.5 0.03125 0  0 0.0625 0  0.03125 0.0625 0  0.0625 0.0625 0  0.09375 0.0625 0  0.125 0.0625 0  0.15625 0.0625 0  0.1875 0.0625 0  0.21875 0.0625 0  0.25 0.0625 0  0.28125 0.0625 0  0.3125 0.0625 0  0.34375 0.0625 0  0.375 0.0625 0  0.40625 0.0625 0  0.4375 0.0625 0  0.46875 0.0625 0  0.5 0.0625 0  0.53125 0.0625 0  0.5625 0.0625 0  0.59375 0.0625 0  0.625 0.0625 0  0.65625 0.0625 0  0.6875 0.0625 0  0.71875 0.0625 0  0.75 0.0625 0  0.78125 0.0625 0  0.8125 0.0625 0  0.84375 0.0625 0  0.875 0.0625 0  0.90625 0.0625 0  0.9375 0.0625 0  0.96875 0.0625 0  1 0.0625 0  1.03125 0.0625 0  1.0625 0.0625 0  1.09375 0.0625 0  1.125 0.0625 0  1.15625 0.0625 0  1.1875 0.0625 0  1.21875 0.0625 0  1.25 0.0625 0  1.28125 0.0625 0  1.3125 0.0625 0  1.34375 0.0625 0  1.375 0.0625 0  1.40625 0.0625 0  1.4375 0.0625 0  1.46875 0.0625 0  1.5 0.0625 0  0 0.09375 0  0.03125 0.09375 0  0.0625 0.09375 0  0.09375 0.09375 0  0.125 0.09375 0  0.15625 0.09375 0  0.1875 0.09375 0  0.21875 0.09375 0  0.25 0.09375 0  0.28125 0.09375 0  0.3125 0.09375 0  0.34375 0.09375 0  0.375 0.09375 0  0.40625 0.09375 0  0.4375 0.09375 0  0.46875 0.09375 0  0.5 0.09375 0  0.53125 0.09375 0  0.5625 0.09375 0  0.59375 0.09375 0  0.625 0.09375 0  0.65625 0.09375 0  0.6875 0.09375 0  0.71875 0.09375 0  0.75 0.09375 0  0.78125 0.09375 0  0.8125 0.09375 0  0.84375 0.09375 0  0.875 0.09375 0  0.90625 0.09375 0  0.9375 0.09375 0  0.96875 0.09375 0  1 0.09375 0  1.03125 0.09375 0  1.0625 0.09375 0  1.09375 0.09375 0  1.125 0.09375 0  1.15625 0.09375 0  1.1875 0.09375 0  1.21875 0.09375 0  1.25 0.09375 0  1.28125 0.09375 0  1.3125 0.09375 0  1.34375 0.09375 0  1.375 0.09375 0  1.40625 0.09375 0  1.4375 0.09375 0  1.46875 0.09375 0  1.5 0.09375 0  0 0.125 0  0.03125 0.125 0  0.0625 0.125 0  0.09375 0.125 0  0.125 0.125 0  0.15625 0.125 0  0.1875 0.125 0  0.21875 0.125 0  0.25 0.125 0  0.28125 0.125 0  0.3125 0.125 0  0.34375 0.125 0  0.375 0.125 0  0.40625 0.125 0  0.4375 0.125 0  0.46875 0.125 0  0.5 0.125 0  0.53125 0.125 0  0.5625 0.125 0  0.59375 0.125 0  0.625 0.125 0  0.65625 0.125 0  0.6875 0.125 0  0.71875 0.125 0  0.75 0.125 0  0.78125 0.125 0  0.8125 0.125 0  0.84375 0.125 0  0.875 0.125 0  0.90625 0.125 0  0.9375 0.125 0  0.96875 0.125 0  1 0.125 0  1.03125 0.125 0  1.0625 0.125 0  1.09375 0.125 0  1.125 0.125 0  1.15625 0.125 0  1.1875 0.125 0  1.21875 0.125 0  1.25 0.125 0  1.28125 0.125 0  1.3125 0.125 0  1.34375 0.125 0  1.375 0.125 0  1.40625 0.125 0  1.4375 0.125 0  1.46875 0.125 0  1.5 0.125 0  0 0.15625 0  0.03125 0.15625 0  0.0625 0.15625 0  0.09375 0.15625 0  0.125 0.15625 0  0.15625 0.15625 0  0.1875 0.15625 0  0.21875 0.15625 0  0.25 0.15625 0  0.28125 0.15625 0  0.3125 0.15625 0  0.34375 0.15625 0  0.375 0.15625 0  0.40625 0.15625 0  0.4375 0.15625 0  0.46875 0.15625 0  0.5 0.15625 0  0.53125 0.15625 0  0.5625 0.15625 0  0.59375 0.15625 0  0.625 0.15625 0  0.65625 0.15625 0  0.6875 0.15625 0  0.71875 0.15625 0  0.75 0.15625 0  0.78125 0.15625 0  0.8125 0.15625 0  0.84375 0.15625 0  0.875 0.15625 0  0.90625 0.15625 0  0.9375 0.15625 0  0.96875 0.15625 0  1 0.15625 0  1.03125 0.15625 0  1.0625 0.15625 0  1.09375 0.15625 0  1.125 0.15625 0  1.15625 0.15625 0  1.1875 0.15625 0  1.21875 0.15625 0  1.25 0.15625 0  1.28125 0.15625 0  1.3125 0.15625 0  1.34375 0.15625 0  1.375 0.15625 0  1.40625 0.15625 0  1.4375 0.15625 0  1.46875 0.15625 0  1.5 0.15625 0  0 0.1875 0  0.03125 0.1875 0  0.0625 0.1875 0  0.09375 0.1875 0  0.125 0.1875 0  0.15625 0.1875 0  0.1875 0.1875 0  0.21875 0.1875 0  0.25 0.1875 0  0.28125 0.1875 0  0.3125 0.1875 0  0.34375 0.1875 0  0.375 0.1875 0  0.40625 0.1875 0  0.4375 0.1875 0  0.46875 0.1875 0  0.5 0.1875 0  0.53125 0.1875 0  0.5625 0.1875 0  0.59375 0.1875 0  0.625 0.1875 0  0.65625 0.1875 0  0.6875 0.1875 0  0.71875 0.1875 0  0.75 0.1875 0  0.78125 0.1875 0  0.8125 0.1875 0  0.84375 0.1875 0  0.875 0.1875 0  0.90625 0.1875 0  0.9375 0.1875 0  0.96875 0.1875 0  1 0.1875 0  1.03125 0.1875 0  1.0625 0.1875 0  1.09375 0.1875 0  1.125 0.1875 0  1.15625 0.1875 0  1.1875 0.1875 0  1.21875 0.1875 0  1.25 0.1875 0  1.28125 0.1875 0  1.3125 0.1875 0  1.34375 0.1875 0  1.375 0.1875 0  1.40625 0.1875 0  1.4375 0.1875 0  1.46875 0.1875 0  1.5 0.1875 0  0 0.21875 0  0.03125 0.21875 0  0.0625 0.21875 0  0.09375 0.21875 0  0.125 0.21875 0  0.15625 0.21875 0  0.1875 0.21875 0  0.21875 0.21875 0  0.25 0.21875 0  0.28125 0.21875 0  0.3125 0.21875 0  0.34375 0.21875 0  0.375 0.21875 0  0.40625 0.21875 0  0.4375 0.21875 0  0.46875 0.21875 0  0.5 0.21875 0  0.53125 0.21875 0  0.5625 0.21875 0  0.59375 0.21875 0  0.625 0.21875 0  0.65625 0.21875 0  0.6875 0.21875 0  0.71875 0.21875 0  0.75 0.21875 0  0.78125 0.21875 0  0.8125 0.21875 0  0.84375 0.21875 0  0.875 0.21875 0  0.90625 0.21875 0  0.9375 0.21875 0  0.96875 0.21875 0  1 0.21875 0  1.03125 0.21875 0  1.0625 0.21875 0  1.09375 0.21875 0  1.125 0.21875 0  1.15625 0.21875 0  1.1875 0.21875 0  1.21875 0.21875 0  1.25 0.21875 0  1.28125 0.21875 0  1.3125 0.21875 0  1.34375 0.21875 0  1.375 0.21875 0  1.40625 0.21875 0  1.4375 0.21875 0  1.46875 0.21875 0  1.5 0.21875 0  0 0.25 0  0.03125 0.25 0  0.0625 0.25 0  0.09375 0.25 0  0.125 0.25 0  0.15625 0.25 0  0.1875 0.25 0  0.21875 0.25 0  0.25 0.25 0  0.28125 0.25 0  0.3125 0.25 0  0.34375 0.25 0  0.375 0.25 0  0.40625 0.25 0  0.4375 0.25 0  0.46875 0.25 0  0.5 0.25 0  0.53125 0.25 0  0.5625 0.25 0  0.59375 0.25 0  0.625 0.25 0  0.65625 0.25 0  0.6875 0.25 0  0.71875 0.25 0  0.75 0.25 0  0.78125 0.25 0  0.8125 0.25 0  0.84375 0.25 0  0.875 0.25 0  0.90625 0.25 0  0.9375 0.25 0  0.96875 0.25 0  1 0.25 0  1.03125 0.25 0  1.0625 0.25 0  1.09375 0.25 0  1.125 0.25 0  1.15625 0.25 0  1.1875 0.25 0  1.21875 0.25 0  1.25 0.25 0  1.28125 0.25 0  1.3125 0.25 0  1.34375 0.25 0  1.375 0.25 0  1.40625 0.25 0  1.4375 0.25 0  1.46875 0.25 0  1.5 0.25 0  0 0.28125 0  0.03125 0.28125 0  0.0625 0.28125 0  0.09375 0.28125 0  0.125 0.28125 0  0.15625 0.28125 0  0.1875 0.28125 0  0.21875 0.28125 0  0.25 0.28125 0  0.28125 0.28125 0  0.3125 0.28125 0  0.34375 0.28125 0  0.375 0.28125 0  0.40625 0.28125 0  0.4375 0.28125 0  0.46875 0.28125 0  0.5 0.28125 0  0.53125 0.28125 0  0.5625 0.28125 0  0.59375 0.28125 0  0.625 0.28125 0  0.65625 0.28125 0  0.6875 0.28125 0  0.71875 0.28125 0  0.75 0.28125 0  0.78125 0.28125 0  0.8125 0.28125 0  0.84375 0.28125 0  0.875 0.28125 0  0.90625 0.28125 0  0.9375 0.28125 0  0.96875 0.28125 0  1 0.28125 0  1.03125 0.28125 0  1.0625 0.28125 0  1.09375 0.28125 0  1.125 0.28125 0  1.15625 0.28125 0  1.1875 0.28125 0  1.21875 0.28125 0  1.25 0.28125 0  1.28125 0.28125 0  1.3125 0.28125 0  1.34375 0.28125 0  1.375 0.28125 0  1.40625 0.28125 0  1.4375 0.28125 0  1.46875 0.28125 0  1.5 0.28125 0  0 0.3125 0  0.03125 0.3125 0  0.0625 0.3125 0  0.09375 0.3125 0  0.125 0.3125 0  0.15625 0.3125 0  0.1875 0.3125 0  0.21875 0.3125 0  0.25 0.3125 0  0.28125 0.3125 0  0.3125 0.3125 0  0.34375 0.3125 0  0.375 0.3125 0  0.40625 0.3125 0  0.4375 0.3125 0  0.46875 0.3125 0  0.5 0.3125 0  0.53125 0.3125 0  0.5625 0.3125 0  0.59375 0.3125 0  0.625 0.3125 0  0.65625 0.3125 0  0.6875 0.3125 0  0.71875 0.3125 0  0.75 0.3125 0  0.78125 0.3125 0  0.8125 0.3125 0  0.84375 0.3125 0  0.875 0.3125 0  0.90625 0.3125 0  0.9375 0.3125 0  0.96875 0.3125 0  1 0.3125 0  1.03125 0.3125 0  1.0625 0.3125 0  1.09375 0.3125 0  1.125 0.3125 0  1.15625 0.3125 0  1.1875 0.3125 0  1.21875 0.3125 0  1.25 0.3125 0  1.28125 0.3125 0  1.3125 0.3125 0  1.34375 0.3125 0  1.375 0.3125 0  1.40625 0.3125 0  1.4375 0.3125 0  1.46875 0.3125 0  1.5 0.3125 0  0 0.34375 0  0.03125 0.34375 0  0.0625 0.34375 0  0.09375 0.34375 0  0.125 0.34375 0  0.15625 0.34375 0  0.1875 0.34375 0  0.21875 0.34375 0  0.25 0.34375 0  0.28125 0.34375 0  0.3125 0.34375 0  0.34375 0.34375 0  0.375 0.34375 0  0.40625 0.34375 0  0.4375 0.34375 0  0.46875 0.34375 0  0.5 0.34375 0  0.53125 0.34375 0  0.5625 0.34375 0  0.59375 0.34375 0  0.625 0.34375 0  0.65625 0.34375 0  0.6875 0.34375 0  0.71875 0.34375 0  0.75 0.34375 0  0.78125 0.34375 0  0.8125 0.34375 0  0.84375 0.34375 0  0.875 0.34375 0  0.90625 0.34375 0  0.9375 0.34375 0  0.96875 0.34375 0  1 0.34375 0  1.03125 0.34375 0  1.0625 0.34375 0  1.09375 0.34375 0  1.125 0.34375 0  1.15625 0.34375 0  1.1875 0.34375 0  1.21875 0.34375 0  1.25 0.34375 0  1.28125 0.34375 0  1.3125 0.34375 0  1.34375 0.34375 0  1.375 0.34375 0  1
[...]
<PointData  Scalars="f_81"> 
<DataArray  type="Float64"  Name="f_81"  format="ascii">1.6022586519633049e+00  3.2769546247780251e-01  4.6288023173329368e-01  4.7006749961435801e-01  4.8171125527077313e-01  4.9141408971570139e-01  4.9850384051084962e-01  5.0344898111362357e-01  5.0666771363129703e-01  5.0860109081430049e-01  5.0967675527763145e-01  5.1024299658657424e-01  5.1055096515932563e-01  5.1076362108402151e-01  5.1097774768941806e-01  5.1124670287567642e-01  5.1159818935681989e-01  5.1204575737538627e-01  5.1259517432068047e-01  5.1324740813181080e-01  5.1399974427278539e-01  5.1484609571115547e-01  5.1577715728115925e-01  5.1678075876544660e-01  5.1784255720309669e-01  5.1894704595495444e-01  5.2007873746376887e-01  5.2122330952690599e-01  5.2236850101156762e-01  5.2350459485117995e-01  5.2462440403000288e-01  5.2572270470819438e-01  5.2679505272516725e-01  5.2783550134032575e-01  5.2883282839675072e-01  5.2976259131105197e-01  5.3057623175644264e-01  5.3117807417399043e-01  5.3140472133870853e-01  5.3100500771079584e-01  5.2953187571418658e-01  5.2687611070196561e-01  5.2103456417297822e-01  5.1713990683988309e-01  4.9399188619016110e-01  5.1348429592245726e-01  4.4838831992470041e-01  4.5452638144758656e-01  7.5432395409706490e-02  2.4805304193265370e+00  1.0804781465915041e-01  4.6250880949304551e-01  4.8054024719128741e-01  4.8382475706678368e-01  4.9390864502188309e-01  5.0107850870565618e-01  5.0627478569583950e-01  5.0969155629513418e-01  5.1175200266301679e-01  5.1285823273720510e-01  5.1335534407555705e-01  5.1349779168237741e-01  5.1345426049164489e-01  5.1332692601515517e-01  5.1317361837962350e-01  5.1302576469380068e-01  5.1290029620010502e-01  5.1280639023037888e-01  5.1274873676792443e-01  5.1272885863453432e-01  5.1274555654204768e-01  5.1279512894025214e-01  5.1287171388888975e-01  5.1296789272610543e-01  5.1307554567296276e-01  5.1318684164112538e-01  5.1329518310258382e-01  5.1339592040527482e-01  5.1348669111796763e-01  5.1356729903558163e-01  5.1363905694938183e-01  5.1370343601377300e-01  5.1375951341356974e-01  5.1379934147257134e-01  5.1379927935159986e-01  5.1370579222511470e-01  5.1341352126541706e-01  5.1273556436092416e-01  5.1139202849259824e-01  5.0892801350828576e-01  5.0504424559586925e-01  4.9852520852813431e-01  4.9133866309938901e-01  4.7495914914693821e-01  4.7355692045667647e-01  4.6092096149246697e-01  4.0297305791892429e-01  1.6876949704863146e-02  2.4508977229024156e+00  5.6605084227759773e-03  4.7714311748128441e-01  4.7656783468746911e-01  4.6909651934538493e-01  4.8186855563171288e-01  4.8948713951124323e-01  4.9526631338782384e-01  4.9925189950602067e-01  5.0184471190157320e-01  5.0342165353270651e-01  5.0433450375213240e-01  5.0484919057785105e-01  5.0514465061029512e-01  5.0532912084170112e-01  5.0546259042789887e-01  5.0557595669578981e-01  5.0568424341917184e-01  5.0579434592210004e-01  5.0590897636991305e-01  5.0602840824108197e-01  5.0615114971229136e-01  5.0627421758291336e-01  5.0639336607166630e-01  5.0650342955346173e-01  5.0659881583282007e-01  5.0667410041431660e-01  5.0672461384422685e-01  5.0674689124802064e-01  5.0673886943270818e-01  5.0669974652521155e-01  5.0662939921171346e-01  5.0652713686803175e-01  5.0638916851060667e-01  5.0620388256831483e-01  5.0594262743420004e-01  5.0554577859123928e-01  5.0489896276074786e-01  5.0381164141111978e-01  5.0199448295961524e-01  4.9903512746101486e-01  4.9464594995090860e-01  4.8782633385647933e-01  4.8081951323624078e-01  4.6454887051066507e-01  4.7062130263487800e-01  4.4663215408986195e-01  4.0148900304689311e-01  1.3064122505753201e-02  2.4635352857574890e+00  1.4681684273312321e-02  4.9365984089075449e-01  4.7503875298780823e-01  4.6574726824858109e-01  4.8115676958291331e-01  4.8773251223953074e-01  4.9324001523095162e-01  4.9709716550783128e-01  4.9959567754661766e-01  5.0109061736665084e-01  5.0192246834967857e-01  5.0235536892606358e-01  5.0256912870142567e-01  5.0267323500642613e-01  5.0272842147470953e-01  5.0276590421708778e-01  5.0280090164932967e-01  5.0284062935645146e-01  5.0288837818371768e-01  5.0294527759634933e-01  5.0301089975061652e-01  5.0308340929996420e-01  5.0315965809496355e-01  5.0323543413451610e-01  5.0330594119061445e-01  5.0336646222770942e-01  5.0341305267887360e-01  5.0344306010709583e-01  5.0345530359775381e-01  5.0344983086866679e-01  5.0342719192892549e-01  5.0338706471813632e-01  5.0332563349420345e-01  5.0323085188968364e-01  5.0307335396152197e-01  5.0279290272306609e-01  5.0227625248806440e-01  5.0133717782945753e-01  4.9970375365391073e-01  4.9698682227992486e-01  4.9298394458735501e-01  4.8671081183076925e-01  4.8071402471850289e-01  4.6557025339876662e-01  4.7360728057238832e-01  4.5182224778555569e-01  4.1150383686035602e-01  1.9085422215425311e-02  2.4673287256785343e+00  1.5321208079902364e-02  4.9578590452422594e-01  4.7276382424600077e-01  4.6526694645318672e-01  4.8089888426172150e-01  4.8626513460855686e-01  4.9174762420611279e-01  4.9555235482650378e-01  4.9800961309001268e-01  4.9948815912814881e-01  5.0030723808917554e-01  5.0072803317763448e-01  5.0092844314096563e-01  5.0101761349674911e-01  5.0105621749993834e-01  5.0107561871423734e-01  5.0109140995093893e-01  5.0111144891007919e-01  5.0113990315182122e-01  5.0117887183046150e-01  5.0122876138862837e-01  5.0128817348917676e-01  5.0135379488940257e-01  5.0142060441246805e-01  5.0148254798696057e-01  5.0153360681165582e-01  5.0156895043638738e-01  5.0158576012737333e-01  5.0158342946486967e-01  5.0156309420683420e-01  5.0152657460474592e-01  5.0147470962342511e-01  5.0140457708779285e-01  5.0130475021282128e-01  5.0114642031112289e-01  5.0087033460869346e-01  5.0036570235834354e-01  4.9945225762128009e-01  4.9786976919568954e-01  4.9525250685173211e-01  4.9142658560609553e-01  4.8546418604039698e-01  4.7992007017253646e-01  4.6539543836024322e-01  4.7422589931958892e-01  4.5250942411235084e-01  4.1394121389829247e-01  1.7651450695706013e-02  2.4709088914648150e+00  1.7453755029534695e-02  4.9704341352500092e-01  4.7303797877276577e-01  4.6597021256875626e-01  4.8074832019412522e-01  4.8563762528247989e-01  4.9121206783619348e-01  4.9490974973790436e-01  4.9731265463415586e-01  4.9876726112138325e-01  4.9956613677900574e-01  4.9997039874478422e-01  5.0015452787479797e-01  5.0022687994330350e-01  5.0024793597796391e-01  5.0024948031328909e-01  5.0024801038304512e-01  5.0025272565526335e-01  5.0026945298936920e-01  5.0030194956971330e-01  5.0035184516410214e-01  5.0041802738907781e-01  5.0049614664075659e-01  5.0057878954394408e-01  5.0065664345502281e-01  5.0072050607172969e-01  5.0076344378502402e-01  5.0078217419446458e-01  5.0077715270369616e-01  5.0075150383128819e-01  5.0070925761992557e-01  5.0065316413822514e-01  5.0058168621619981e-01  5.0048430358558116e-01  5.0033289365471190e-01  5.0006918752974527e-01  4.9958441702582074e-01  4.9870277270765578e-01  4.9717215047821989e-01  4.9464072781797458e-01  4.9095377761916459e-01  4.8520139740444196e-01  4.7996868360622108e-01  4.6578414086088926e-01  4.7517739335750236e-01  4.5355250764243132e-01  4.1718154126336948e-01  1.7824682314159120e-02  2.4738842607944345e+00  1.9000071557766368e-02  4.9789790508097082e-01  4.7376432478873909e-01  4.6651394871874780e-01  4.8081704887187227e-01  4.8566769020999079e-01  4.9120991929678320e-01  4.9478452995663941e-01  4.9715240262273264e-01  4.9858173171373465e-01  4.9935658044152953e-01  4.9973998374659356e-01  4.9990236488536549e-01  4.9995169911285120e-01  4.9994843815901374e-01  4.9992519025620658e-01  4.9989992660909749e-01  4.9988411065279154e-01  4.9988644532078697e-01  4.9991359348451225e-01  4.9996941135039435e-01  5.0005327786010723e-01  5.0015876531873960e-01  5.0027368992647214e-01  5.0038230789261795e-01  5.0046939732933071e-01  5.0052452355750443e-01  5.0054429537660172e-01  5.0053178994338920e-01  5.0049401244536329e-01  5.0043876063193826e-01  5.0037164731042261e-01  5.0029289916736663e-01  5.0019286199436308e-01  5.0004378510472347e-01  4.9978778921641065e-01  4.9931713886074097e-01  4.9845857383818470e-01  4.9696486461061257e-01  4.9449261331303002e-01  4.9089806890071175e-01  4.8528378289230828e-01  4.8025139918503390e-01  4.6628292720297526e-01  4.7607943918279838e-01  4.5444226204373578e-01  4.1999857734420420e-01  1.8102217384479626e-02  2.4764110867818379e+00  2.0112771750119350e-02  4.9847450485166450e-01  4.7429487594654696e-01  4.6681140094816204e-01  4.8093635700877307e-01  4.8576375259913607e-01  4.9121653848331881e-01  4.9473710329144677e-01  4.9710018777893150e-01  4.9851582850122561e-01  4.9927974903971323e-01  4.9965237805899626e-01  4.9980056123792355e-01  4.9983221259797778e-01  4.9980773343857621e-01  4.9976079347391256e-01  4.9971128971055950e-01  4.9967434215571033e-01  4.9966338656213150e-01  4.9969022442972610e-01  4.9976317305606976e-01  4.9988289803916053e-01  5.0003939161211763e-01  5.0021150299716188e-01  5.0037127586159780e-01  5.0049277949406756e-01  5.0056080840543271e-01  5.0057402894299907e-01  5.0054192942953257e-01  5.0047888307919075e-01  5.0039864566711911e-01  5.0031052217088257e-01  5.0021637588819334e-01  5.0010679630128241e-01  4.9995359226984148e-01  4.9969838247552179e-01  4.9923338383188254e-01  4.9838641887406904e-01  4.9691284776127220e-01  4.9447461714002688e-01  4.9093493459363247e-01  4.8540539626468066e-01  4.8050352152820347e-01  4.6667343309536652e-01  4.7677727105972256e-01  4.5511739476346230e-01  4.2231515710308687e-01  1.8194250087183811e-02  2.4785404724810465e+00  2.0873355062359943e-02  4.9887670351653823e-01  4.7469136895177327e-01  4.6703805213267963e-01  4.8106709538510767e-01  4.8584600001259293e-01  4.9124210818320302e-01  4.9475086207272534e-01  4.9710972157654670e-01  4.9851634832496372e-01  4.9927521100987882e-01  4.9963946567891010e-01  4.9977410389866811e-01  4.9978644147970031e-01  4.9973646262160887e-01  4.9965856049871310e-01  4.9957492514899021e-01  4.9950651452021955e-01  4.9947384943820994e-01  4.9949828162481291e-01  4.9959728645602652e-01  4.9977452528275779e-01  5.0001419632693167e-01  5.0027787303744153e-01  5.0051361815465267e-01  5.0067667260647186e-01  5.0074745725691239e-01  5.0073355465597780e-01  5.0065892676322943e-01  5.0055091046900502e-01  5.0043151561200350e-01  5.0031361650794015e-01  5.0019941803828438e-01  5.0007820052334362e-01  4.9991997029935470e-01  4.9966476138670674e-01  4.9920382590487239e-01  4.9836506516197726e-01  4.9690515035528815e-01  4.9448953799722145e-01  4.9098638410663409e-01  4.8551450822938985e-01  4.8070586323922149e-01  4.6697401356662921e-01  4.7732427906655117e-01  4.5563834530169423e-01  4.2423694634148351e-01  1.8295106504405724e-02  2.4803259652303917e+00  2.1369914706926892e-02  4.9915489951645631e-01  4.7497061361798754e-01  4.6718465747450272e-01  4.8114594820003581e-01  4.8588888826227378e-01  4.9126041483043476e-01  4.9476637305653465e-01  4.9712214903126800e-01  4.9852839904272661e-01  4.9928750911549102e-01  4.9964658408782786e-01  4.9976960655147573e-01  4.9976191370310952e-01  4.9968215151699252e-01  4.9956401328373945e-01  4.9943256831661242e-01  4.9931677717876427e-01  4.9924649261732851e-01  4.9926257023439946e-01  4.9939954986897456e-01  4.9966797000101315e-01  5.0004460324567956e-01  5.0045534368032374e-01  5.0079868906939995e-01  5.0099828273160674e-01  5.0103859765705250e-01  5.0095452278628971e-01  5.0079960134310153e-01  5.0062095056855194e-01  5.0044895308858983e-01  5.0029694989564399e-01  5.0016380925398285e-01  5.0003453228735995e-01  4.9987536346981742e-01  4.9962362219813028e-01  4.9916895940912748e-01  4.9833886863799359e-01  4.9689072400257778e-01  4.9449255575061818e-01  4.9101625220782885e-01  4.8558662775683431e-01  4.8084845654130515e-01  4.6718986550726671e-01  4.7774057630029065e-01  4.5602988930572985e-01  4.2580294584854672e-01  1.8366927440718443e-02  2.4818111557415010e+00  2.1682041363286712e-02  4.9935701835142743e-01  4.7517291393734767e-01  4.6728479152534874e-01  4.8119984515314956e-01  4.8592078090290675e-01  4.9127976309708116e-01  4.9478508448548358e-01  4.9714333141519690e-01  4.9855535249236244e-01  4.9931831870289767e-01  4.9967620776807170e-01  4.9979090798956644e-01  4.9976424510756984e-01  4.9965153325788159e-01  4.9948317969189837e-01  4.9928755614352321e-01  4.9910020637577529e-01  4.9896391741329199e-01  4.9895967980818123e-01  4.9914619687264289e-01  4.9955702161760029e-01  5.0016509004654786e-01  5.0081228402122102e-01  5.0129104655144596e-01  5.0148036998214296e-01  5.0140546752247384e-01  5.0117127611731305e-01  5.0088308040708251e-01  5.0060985109034262e-01  5.0038257103605999e-01  5.0020560126615443e-01  5.0006718474336043e-01  4.9994364734017455e-01  4.9979538157062448e-01  4.9955632806384270e-01  4.9911455998501481e-01  4.9829735189466495e-01  4.9686284284894194e-01  4.9448131468299711e-01  4.9102778482679110e-01  4.8563212008257817e-01  4.8095024970006789e-01  4.6734888886398923e-01  4.7806399528741067e-01  4.5633158880608393e-01  4.2708400748867276e-01  1.8426252788333923e-02  2.4830282961285843e+00  2.1868259615334548e-02  4.9951100931157116e-01  4.7532421109183270e-01  4.6735886844441760e-01  4.8124257363523654e-01  4.8594977511231990e-01  4.9130259405662174e-01  4.9481136786094859e-01  4.9717755109163891e-01  4.9860000325927073e-01  4.9937239671873557e-01  4.9973661957341964e-01  4.9985122841966828e-01  4.9981330275314062e-01  4.9967183024990885e-01  4.9945086619285245e-01  4.9917922717904345e-01  4.9888925148604718e-01  4.9864755845102643e-01  4.9860127203601212e-01  4.9883138545746697e-01  4.9946927727301577e-01  5.0048816821418463e-01  5.0150860649648710e-01  5.0210328691946171e-01  5.0212298000716571e-01  5.0175169788826979e-01  5.0124381847000887e-01  5.0077096254979037e-01  5.0040432129288892e-01  5.0014997498072977e-01  4.9998458952178032e-01  4.9987535658636012e-01  4.9978568026235659e-01  4.9966938975017261e-01  4.9945793524129700e-01  4.9903914786479353e-01  4.9824126551582898e-01  4.9682399396722088e-01  4.9446010924065664e-01  4.9102761838868103e-01  4.8566076932000685e-01  4.8102511104627083e-01  4.6746948168759145e-01  4.7831861918510277e-01  4.5656809870429710e-01  4.2812700770285883e-01  1.8474868619029753e-02  2.4840005754788583e+00  2.1970059506733843e-02  4.9963107636385068e-01  4.7543857129275091e-01  4.6741617116542539e-01  4.8127915462766807e-01  4.8597848591791509e-01  4.9133023819934013e-01  4.9484628346291870e-01  4.9722463621057972e-01  4.9866277410763626e-01  4.9945275458249305e-01  4.9983490594444013e-01  4.9996475246841193e-01  4.9993435849138879e-01  4.9978449656413160e-01  4.9953010868512276e-01  4.9918973089111268e-01  4.9877500657368262e-01  4.9839332819771492e-01  4.9825106588300722e-01  4.9845772489612644e-01  4.9948902330251749e-01  5.0125806813768725e-01  5.0282454050654579e-01  5.0334591524912908e-01  5.0278111490692634e-01  5.0179544079107719e-01  5.0088548999183979e-01  5.0023688572753766e-01  4.9985017574768348e-01  4.9965717503529422e-01  4.9958208756865213e-01  4.9956301295422489e-01  4.9955061993959915e-01  4.9949550691416628e-01  4.9933046966491829e-01  4.9894635696211237e-01  4.9817473094230902e-01  4.9677838210096575e-01  4.9443326666630338e-01  4.9102057370968133e-01  4.8567844267650429e-01  4.8108062783514738e-01  4.6756153123636401e-01  4.7851755030738785e-01  4.5675332875787822e-01  4.2896033046199494e-01  1.8511787058884791e-02  2.4847446102951749e+00  2.2016485125508276e-02  4.9972341217738220e-01  4.7552309215763172e-01  4.6746010849432601e-01  4.8131030054423257e-01  4.8600600162261354e-01  4.9136025301070413e-01  4.9488602604048249e-01  4.9727961591033371e-01  4.9873835348831108e-01  4.9955428886566883e-01  4.9996777403791709e-01  5.0013357899525379e-01  5.0014112295011359e-01  5.0002528225655074e-01  4.9979056806862532e-01  4.9943031028585105e-01  4.9891993990568712e-01  4.9839598390372708e-01  4.9801943887188244e-01  4.9801797312405383e-01  4.9979156133993002e-01  5.0291354381989417e-01  5.0515590722175541e-01  5.0497223256985058e-01  5.0294172162121731e-01  5.0095597117863377e-01  4.9964753439968823e-01  4.9900843795615263e-01  4.9880865967134241e-01  4.9884630831295063e-01  4.9898289946147378e-01  4.9913438895622525e-01  4.9924973171565062e-01  4.9928610866478479e-01  4.9918499133952693e-01  4.9884521811694887e-01  4.9810479629235954e-01  4.9673142738734027e-01  4.9440504705124855e-01  4.9101029382531763e-01  4.8568872654527034e-01  4.8112090426621562e-01  4.6763026572660643e-01  4.7866771530266089e-01  4.5689503800358799e-01  4.2959940022155896e-01  1.8536009229659704e-02  2.4852723807148225e+00  2.2028047348831275e-02  4.9979044437597908e-01  4.7558136636502885e-01  4.6749129814235063e-01  4.8133457337070584e-01  4.8602928700260123e-01  4.9138773915342793e-01  4.9492364073346240e-01  4.9733294543485584e-01  4.9881380311650725e-01  4.9965969950630718e-01  5.0011315573465043e-01  5.0033165200024787e-01  5.0040730080282103e-01  5.0037680934984385e-01  5.0024129894180969e-01  4.9997546771285700e-01  4.9953194709590421e-01  4.9901192520997351e-01  4.9831156397545767e-01  4.9783612339013572e-01  5.0075936931816301e-01  5.0596539118036077e-01  5.0884440291823618e-01  5.0656864782197353e-01  5.0138358595452615e-01  4.9832363256151502e-01  4.9713939768313298e-01  4.9697107405506963e-01  4.9730507542288893e-01  4.9779008931289032e-01  4.9826261911285141e-01  4.9865202062630548e-01  4.9892973897765086e-01  4.9907426028130353e-01  4.9904420001960242e-01  4.9875105559344390e-01  4.9804171722108681e-01  4.9668998216449883e-01  4.9438008176661807e-01  4.9100006846800137e-01  4.8569424708219888e-01  4.8114844087374720e-01  4.6767864418928229e-01  4.7877282537995219e-01  4.5699766773731004e-01  4.3005166015148055e-01  1.8546431603279980e-02  2.4855922558243977e+00  2.2018725615694016e-02  4.9983295570900682e-01  4.7561528293631838e-01  4.6750938528260555e-01  4.8135004144052929e-01  4.8604490061240258e-01  4.9140721295336504e-01  4.9495091008317199e-01  4.9737230187355508e-01  4.9887059246512194e-01  4.9974116502162558e-01  5.0022957116946321e-01  5.0049788482796320e-01  5.0064500906680287e-01  5.0071767410421975e-01  5.0073050742892544e-01  5.0067865493881614e-01  5.0054972814287446e-01  5.0038844022988149e-01  4.9975581996305574e-01  4.9890003603831085e-01  5.0307977259194236e-01  5.1002753907801757e-01  5.1253546620875279e-01  5.0764378376508945e-01  4.9767792250167242e-01  4.9313664160408582e-01  4.9349656351234134e-01  4.9457074589979388e-01  4.9574087294277086e-01  4.9678799033615406e-01  4.9762538965644820e-01  4.9824834497141623e-01  4.9867407677189418e-01  4.9891167313275170e-01  4.9893990610193928e-01  4.9868342108051111e-01  4.9799755680639918e-01  4.9666154626741243e-01  4.9436310231194941e-01  4.9099299356228965e-01  4.8569721549989547e-01  4.8116505657645553e-01  4.6770860302521550e-01  4.7883505301851720e-01  4.5706392232665527e-01  4.3032035100109017e-01  1.8542313236386283e-02  2.4857094388622878e+00  2.1996717485801179e-02  4.9985099230034002e-01  4.7562575490201237e-01  4.6751383036183880e-01  4.8135510798589826e-01  4.8605010855479763e-01  4.9141425110174558e-01  4.9496095435568155e-01  4.9738688589905938e-01  4.9889163357737615e-01  4.9977139897953976e-01  5.0027304435380493e-01  5.0056075490356955e-01  5.0073686718566657e-01  5.0085389726460194e-01  5.0093687153111344e-01  5.0100066308676205e-01  5.0106049859139767e-01  5.0112109919277448e-01  5.0077727839283515e-01  5.0000149953763739e-01  5.0473640894146510e-01  5.1261548510006483e-01  5.1380944705421583e-01  5.0804560848112035e-01  4.9503304566626039e-01  4.8921579966234585e-01  4.9070507400876295e-01  4.9314526280240883e-01  4.9494888878194970e-01  4.9632925405766892e-01  4.9735239068554304e-01  4.9808396171705821e-01  4.9857435251287630e-01  4.9885066406553868e-01  4.9890211229791370e-01  4.9865965306472326e-01  4.9798244760708749e-01  4.9665212818775378e-01  4.9435774656408632e-01  4.9099135137775235e-01  4.8569918220344521e-01  4.8117192800653535e-01  4.6772130792966959e-01  4.7885557417894314e