<?xml version="1.0"?>
<VTKFile type="UnstructuredGrid"  version="0.1"  >
<UnstructuredGrid>
<Piece  NumberOfPoints="1617" NumberOfCells="3072">
<Points>
<DataArray  type="Float64"  NumberOfComponents="3"  format="ascii">0 0 0  0.03125 0 0  0.0625 0 0  0.09375 0 0  0.125 0 0  0.15625 0 0  0.1875 0 0  0.21875 0 0  0.25 0 0  0.28125 0 0  0.3125 0 0  0.34375 0 0  0.375 0 0  0.40625 0 0  0.4375 0 0  0.46875 0 0  0.5 0 0  0.53125 0 0  0.5625 0 0  0.59375 0 0  0.625 0 0  0.65625 0 0  0.6875 0 0  0.71875 0 0  0.75 0 0  0.78125 0 0  0.8125 0 0  0.84375 0 0  0.875 0 0  0.90625 0 0  0.9375 0 0  0.96875 0 0  1 0 0  1.03125 0 0  1.0625 0 0  1.09375 0 0  1.125 0 0  1.15625 0 0  1.1875 0 0  1.21875 0 0  1.25 0 0  1.28125 0 0  1.3125 0 0  1.34375 0 0  1.375 0 0  1.40625 0 0  1.4375 0 0  1.46875 0 0  1.5 0 0  0 0.03125 0  0.03125 0.03125 0  0.0625 0.03125 0  0.09375 0.03125 0  0.125 0.03125 0  0.15625 0.03125 0  0.1875 0.03125 0  0.21875 0.03125 0  0.25 0.03125 0  0.28125 0.03125 0  0.3125 0.03125 0  0.34375 0.03125 0  0.375 0.03125 0  0.40625 0.03125 0  0.4375 0.03125 0  0.46875 0.03125 0  0.5 0.03125 0  0.53125 0.03125 0  0.5625 0.03125 0  0.59375 0.03125 0  0.625 0.03125 0  0.65625 0.03125 0  0.6875 0.03125 0  0.71875 0.03125 0  0.75 0.03125 0  0.78125 0.03125 0  0.8125 0.03125 0  0.84375 0.03125 0  0.875 0.03125 0  0.90625 0.03125 0  0.9375 0.03125 0  0.96875 0.03125 0  1 0.03125 0  1.03125 0.03125 0  1.0625 0.03125 0  1.09375 0.03125 0  1.125 0.03125 0  1.15625 0.03125 0  1.1875 0.03125 0  1.21875 0.03125 0  1.25 0.03125 0  1.28125 0.03125 0  1.3125 0.03125 0  1.34375 0.03125 0  1.375 0.03125 0  1.40625 0.03125 0  1.4375 0.03125 0  1.46875 0.03125 0  1.5 0.03125 0  0 0.0625 0  0.03125 0.0625 0  0.0625 0.0625 0  0.09375 0.0625 0  0.125 0.0625 0  0.15625 0.0625 0  0.1875 0.0625 0  0.21875 0.0625 0  0.25 0.0625 0  0.28125 0.0625 0  0.3125 0.0625 0  0.34375 0.0625 0  0.375 0.0625 0  0.40625 0.0625 0  0.4375 0.0625 0  0.46875 0.0625 0  0.5 0.0625 0  0.53125 0.0625 0  0.5625 0.0625 0  0.59375 0.0625 0  0.625 0.0625 0  0.65625 0.0625 0  0.6875 0.0625 0  0.71875 0.0625 0  0.75 0.0625 0  0.78125 0.0625 0  0.8125 0.0625 0  0.84375 0.0625 0  0.875 0.0625 0  0.90625 0.0625 0  0.9375 0.0625 0  0.96875 0.0625 0  1 0.0625 0  1.03125 0.0625 0  1.0625 0.0625 0  1.09375 0.0625 0  1.125 0.0625 0  1.15625 0.0625 0  1.1875 0.0625 0  1.21875 0.0625 0  1.25 0.0625 0  1.28125 0.0625 0  1.3125 0.0625 0  1.34375 0.0625 0  1.375 0.0625 0  1.40625 0.0625 0  1.4375 0.0625 0  1.46875 0.0625 0  1.5 0.0625 0  0 0.09375 0  0.03125 0.09375 0  0.0625 0.09375 0  0.09375 0.09375 0  0.125 0.09375 0  0.15625 0.09375 0  0.1875 0.09375 0  0.21875 0.09375 0  0.25 0.09375 0  0.28125 0.09375 0  0.3125 0.09375 0  0.34375 0.09375 0  0.375 0.09375 0  0.40625 0.09375 0  0.4375 0.09375 0  0.46875 0.09375 0  0.5 0.09375 0  0.53125 0.09375 0  0.5625 0.09375 0  0.59375 0.09375 0  0.625 0.09375 0  0.65625 0.09375 0  0.6875 0.09375 0  0.71875 0.09375 0  0.75 0.09375 0  0.78125 0.09375 0  0.8125 0.09375 0  0.84375 0.09375 0  0.875 0.09375 0  0.90625 0.09375 0  0.9375 0.09375 0  0.96875 0.09375 0  1 0.09375 0  1.03125 0.09375 0  1.0625 0.09375 0  1.09375 0.09375 0  1.125 0.09375 0  1.15625 0.09375 0  1.1875 0.09375 0  1.21875 0.09375 0  1.25 0.09375 0  1.28125 0.09375 0  1.3125 0.09375 0  1.34375 0.09375 0  1.375 0.09375 0  1.40625 0.09375 0  1.4375 0.09375 0  1.46875 0.09375 0  1.5 0.09375 0  0 0.125 0  0.03125 0.125 0  0.0625 0.125 0  0.09375 0.125 0  0.125 0.125 0  0.15625 0.125 0  0.1875 0.125 0  0.21875 0.125 0  0.25 0.125 0  0.28125 0.125 0  0.3125 0.125 0  0.34375 0.125 0  0.375 0.125 0  0.40625 0.125 0  0.4375 0.125 0  0.46875 0.125 0  0.5 0.125 0  0.53125 0.125 0  0.5625 0.125 0  0.59375 0.125 0  0.625 0.125 0  0.65625 0.125 0  0.6875 0.125 0  0.71875 0.125 0  0.75 0.125 0  0.78125 0.125 0  0.8125 0.125 0  0.84375 0.125 0  0.875 0.125 0  0.90625 0.125 0  0.9375 0.125 0  0.96875 0.125 0  1 0.125 0  1.03125 0.125 0  1.0625 0.125 0  1.09375 0.125 0  1.125 0.125 0  1.15625 0.125 0  1.1875 0.125 0  1.21875 0.125 0  1.25 0.125 0  1.28125 0.125 0  1.3125 0.125 0  1.34375 0.125 0  1.375 0.125 0  1.40625 0.125 0  1.4375 0.125 0  1.46875 0.125 0  1.5 0.125 0  0 0.15625 0  0.03125 0.15625 0  0.0625 0.15625 0  0.09375 0.15625 0  0.125 0.15625 0  0.15625 0.15625 0  0.1875 0.15625 0  0.21875 0.15625 0  0.25 0.15625 0  0.28125 0.15625 0  0.3125 0.15625 0  0.34375 0.15625 0  0.375 0.15625 0  0.40625 0.15625 0  0.4375 0.15625 0  0.46875 0.15625 0  0.5 0.15625 0  0.53125 0.15625 0  0.5625 0.15625 0  0.59375 0.15625 0  0.625 0.15625 0  0.65625 0.15625 0  0.6875 0.15625 0  0.71875 0.15625 0  0.75 0.15625 0  0.78125 0.15625 0  0.8125 0.15625 0  0.84375 0.15625 0  0.875 0.15625 0  0.90625 0.15625 0  0.9375 0.15625 0  0.96875 0.15625 0  1 0.15625 0  1.03125 0.15625 0  1.0625 0.15625 0  1.09375 0.15625 0  1.125 0.15625 0  1.15625 0.15625 0  1.1875 0.15625 0  1.21875 0.15625 0  1.25 0.15625 0  1.28125 0.15625 0  1.3125 0.15625 0  1.34375 0.15625 0  1.375 0.15625 0  1.40625 0.15625 0  1.4375 0.15625 0  1.46875 0.15625 0  1.5 0.15625 0  0 0.1875 0  0.03125 0.1875 0  0.0625 0.1875 0  0.09375 0.1875 0  0.125 0.1875 0  0.15625 0.1875 0  0.1875 0.1875 0  0.21875 0.1875 0  0.25 0.1875 0  0.28125 0.1875 0  0.3125 0.1875 0  0.34375 0.1875 0  0.375 0.1875 0  0.40625 0.1875 0  0.4375 0.1875 0  0.46875 0.1875 0  0.5 0.1875 0  0.53125 0.1875 0  0.5625 0.1875 0  0.59375 0.1875 0  0.625 0.1875 0  0.65625 0.1875 0  0.6875 0.1875 0  0.71875 0.1875 0  0.75 0.1875 0  0.78125 0.1875 0  0.8125 0.1875 0  0.84375 0.1875 0  0.875 0.1875 0  0.90625 0.1875 0  0.9375 0.1875 0  0.96875 0.1875 0  1 0.1875 0  1.03125 0.1875 0  1.0625 0.1875 0  1.09375 0.1875 0  1.125 0.1875 0  1.15625 0.1875 0  1.1875 0.1875 0  1.21875 0.1875 0  1.25 0.1875 0  1.28125 0.1875 0  1.3125 0.1875 0  1.34375 0.1875 0  1.375 0.1875 0  1.40625 0.1875 0  1.4375 0.1875 0  1.46875 0.1875 0  1.5 0.1875 0  0 0.21875 0  0.03125 0.21875 0  0.0625 0.21875 0  0.09375 0.21875 0  0.125 0.21875 0  0.15625 0.21875 0  0.1875 0.21875 0  0.21875 0.21875 0  0.25 0.21875 0  0.28125 0.21875 0  0.3125 0.21875 0  0.34375 0.21875 0  0.375 0.21875 0  0.40625 0.21875 0  0.4375 0.21875 0  0.46875 0.21875 0  0.5 0.21875 0  0.53125 0.21875 0  0.5625 0.21875 0  0.59375 0.21875 0  0.625 0.21875 0  0.65625 0.21875 0  0.6875 0.21875 0  0.71875 0.21875 0  0.75 0.21875 0  0.78125 0.21875 0  0.8125 0.21875 0  0.84375 0.21875 0  0.875 0.21875 0  0.90625 0.21875 0  0.9375 0.21875 0  0.96875 0.21875 0  1 0.21875 0  1.03125 0.21875 0  1.0625 0.21875 0  1.09375 0.21875 0  1.125 0.21875 0  1.15625 0.21875 0  1.1875 0.21875 0  1.21875 0.21875 0  1.25 0.21875 0  1.28125 0.21875 0  1.3125 0.21875 0  1.34375 0.21875 0  1.375 0.21875 0  1.40625 0.21875 0  1.4375 0.21875 0  1.46875 0.21875 0  1.5 0.21875 0  0 0.25 0  0.03125 0.25 0  0.0625 0.25 0  0.09375 0.25 0  0.125 0.25 0  0.15625 0.25 0  0.1875 0.25 0  0.21875 0.25 0  0.25 0.25 0  0.28125 0.25 0  0.3125 0.25 0  0.34375 0.25 0  0.375 0.25 0  0.40625 0.25 0  0.4375 0.25 0  0.46875 0.25 0  0.5 0.25 0  0.53125 0.25 0  0.5625 0.25 0  0.59375 0.25 0  0.625 0.25 0  0.65625 0.25 0  0.6875 0.25 0  0.71875 0.25 0  0.75 0.25 0  0.78125 0.25 0  0.8125 0.25 0  0.84375 0.25 0  0.875 0.25 0  0.90625 0.25 0  0.9375 0.25 0  0.96875 0.25 0  1 0.25 0  1.03125 0.25 0  1.0625 0.25 0  1.09375 0.25 0  1.125 0.25 0  1.15625 0.25 0  1.1875 0.25 0  1.21875 0.25 0  1.25 0.25 0  1.28125 0.25 0  1.3125 0.25 0  1.34375 0.25 0  1.375 0.25 0  1.40625 0.25 0  1.4375 0.25 0  1.46875 0.25 0  1.5 0.25 0  0 0.28125 0  0.03125 0.28125 0  0.0625 0.28125 0  0.09375 0.28125 0  0.125 0.28125 0  0.15625 0.28125 0  0.1875 0.28125 0  0.21875 0.28125 0  0.25 0.28125 0  0.28125 0.28125 0  0.3125 0.28125 0  0.34375 0.28125 0  0.375 0.28125 0  0.40625 0.28125 0  0.4375 0.28125 0  0.46875 0.28125 0  0.5 0.28125 0  0.53125 0.28125 0  0.5625 0.28125 0  0.59375 0.28125 0  0.625 0.28125 0  0.65625 0.28125 0  0.6875 0.28125 0  0.71875 0.28125 0  0.75 0.28125 0  0.78125 0.28125 0  0.8125 0.28125 0  0.84375 0.28125 0  0.875 0.28125 0  0.90625 0.28125 0  0.9375 0.28125 0  0.96875 0.28125 0  1 0.28125 0  1.03125 0.28125 0  1.0625 0.28125 0  1.09375 0.28125 0  1.125 0.28125 0  1.15625 0.28125 0  1.1875 0.28125 0  1.21875 0.28125 0  1.25 0.28125 0  1.28125 0.28125 0  1.3125 0.28125 0  1.34375 0.28125 0  1.375 0.28125 0  1.40625 0.28125 0  1.4375 0.28125 0  1.46875 0.28125 0  1.5 0.28125 0  0 0.3125 0  0.03125 0.3125 0  0.0625 0.3125 0  0.09375 0.3125 0  0.125 0.3125 0  0.15625 0.3125 0  0.1875 0.3125 0  0.21875 0.3125 0  0.25 0.3125 0  0.28125 0.3125 0  0.3125 0.3125 0  0.34375 0.3125 0  0.375 0.3125 0  0.40625 0.3125 0  0.4375 0.3125 0  0.46875 0.3125 0  0.5 0.3125 0  0.53125 0.3125 0  0.5625 0.3125 0  0.59375 0.3125 0  0.625 0.3125 0  0.65625 0.3125 0  0.6875 0.3125 0  0.71875 0.3125 0  0.75 0.3125 0  0.78125 0.3125 0  0.8125 0.3125 0  0.84375 0.3125 0  0.875 0.3125 0  0.90625 0.3125 0  0.9375 0.3125 0  0.96875 0.3125 0  1 0.3125 0  1.03125 0.3125 0  1.0625 0.3125 0  1.09375 0.3125 0  1.125 0.3125 0  1.15625 0.3125 0  1.1875 0.3125 0  1.21875 0.3125 0  1.25 0.3125 0  1.28125 0.3125 0  1.3125 0.3125 0  1.34375 0.3125 0  1.375 0.3125 0  1.40625 0.3125 0  1.4375 0.3125 0  1.46875 0.3125 0  1.5 0.3125 0  0 0.34375 0  0.03125 0.34375 0  0.0625 0.34375 0  0.09375 0.34375 0  0.125 0.34375 0  0.15625 0.34375 0  0.1875 0.34375 0  0.21875 0.34375 0  0.25 0.34375 0  0.28125 0.34375 0  0.3125 0.34375 0  0.34375 0.34375 0  0.375 0.34375 0  0.40625 0.34375 0  0.4375 0.34375 0  0.46875 0.34375 0  0.5 0.34375 0  0.53125 0.34375 0  0.5625 0.34375 0  0.59375 0.34375 0  0.625 0.34375 0  0.65625 0.34375 0  0.6875 0.34375 0  0.71875 0.34375 0  0.75 0.34375 0  0.78125 0.34375 0  0.8125 0.34375 0  0.84375 0.34375 0  0.875 0.34375 0  0.90625 0.34375 0  0.9375 0.34375 0  0.96875 0.34375 0  1 0.34375 0  1.03125 0.34375 0  1.0625 0.34375 0  1.09375 0.34375 0  1.125 0.34375 0  1.15625 0.34375 0  1.1875 0.34375 0  1.21875 0.34375 0  1.25 0.34375 0  1.28125 0.34375 0  1.3125 0.34375 0  1.34375 0.34375 0  1.375 0.34375 0  1
[...]
<PointData  Scalars="f_81"> 
<DataArray  type="Float64"  Name="f_81"  format="ascii">1.2723107397882671e+00  2.6679061193720610e-01  3.6888784484321796e-01  3.7735830581774948e-01  3.9306255373534421e-01  4.0549169627344889e-01  4.1618173369535610e-01  4.2526382494988624e-01  4.3292844000950259e-01  4.3947985142776336e-01  4.4521531371932921e-01  4.5040911469943973e-01  4.5528358213000236e-01  4.6000433808031399e-01  4.6468574337516094e-01  4.6940252577865371e-01  4.7420183743507566e-01  4.7911305337821319e-01  4.8415443058078272e-01  4.8933694909438535e-01  4.9466613929011705e-01  5.0014274784119761e-01  5.0576294494096674e-01  5.1151856233112636e-01  5.1739763567184149e-01  5.2338532697630347e-01  5.2946513818687591e-01  5.3562021501879842e-01  5.4183448778147369e-01  5.4809340857191102e-01  5.5438404080537573e-01  5.6069431248978463e-01  5.6701093912973999e-01  5.7331588274468381e-01  5.7957950036116812e-01  5.8575250827648495e-01  5.9174914032360715e-01  5.9744099897874381e-01  6.0262124866083588e-01  6.0704297707383503e-01  6.1033969654495512e-01  6.1212984220489242e-01  6.1224474271857776e-01  6.0891898782241005e-01  6.0646673073834156e-01  5.8005233870389428e-01  6.4450534282076299e-01  5.2600168699053362e-01  1.4245664426538168e-01  2.5069878906201088e+00  3.1427254861323188e-02  5.5434470172832084e-01  4.8347079814539073e-01  5.0049495854276749e-01  5.0820395573480714e-01  5.1490515962190575e-01  5.1954712332241715e-01  5.2265068570876461e-01  5.2445101083896195e-01  5.2526826497222456e-01  5.2539337326060653e-01  5.2506663218255301e-01  5.2446739129063435e-01  5.2371868150405765e-01  5.2289915258856734e-01  5.2205617702260798e-01  5.2121685156316910e-01  5.2039570539603264e-01  5.1959940496613310e-01  5.1882930453496845e-01  5.1808275443669971e-01  5.1735389264830722e-01  5.1663439061351524e-01  5.1591437912992555e-01  5.1518357464180253e-01  5.1443247609020626e-01  5.1365342126014857e-01  5.1284127781799926e-01  5.1199358218457713e-01  5.1110995772787926e-01  5.1019063583750135e-01  5.0923367600332292e-01  5.0823042773006166e-01  5.0715806493451743e-01  5.0596918040161099e-01  5.0457667961234065e-01  5.0283852233112369e-01  5.0054314777350506e-01  4.9739711122446101e-01  4.9308180570246840e-01  4.8708257688114132e-01  4.7956362154433974e-01  4.6842042667434475e-01  4.5871547173041666e-01  4.3275763890950764e-01  4.7324044849995600e-01  3.7469507632781229e-01  3.4301721342399817e-02  2.5136384493946204e+00  -1.6141980183320673e-01  6.1308096877111240e-01  4.3407702604707554e-01  4.7208755247649953e-01  4.7884043540326487e-01  4.8650902982038891e-01  4.9219605988318327e-01  4.9653086103410382e-01  4.9958501028997160e-01  5.0165989522833099e-01  5.0302253648523509e-01  5.0390894682305187e-01  5.0449881577405598e-01  5.0491731743459189e-01  5.0524460164450125e-01  5.0552851776894248e-01  5.0579589976454498e-01  5.0606085888877506e-01  5.0633006773024036e-01  5.0660575104773375e-01  5.0688723256887191e-01  5.0717172980884007e-01  5.0745486264823758e-01  5.0773113621351673e-01  5.0799449997559853e-01  5.0823896732218776e-01  5.0845919792925576e-01  5.0865089600589120e-01  5.0881086020784183e-01  5.0893648258684887e-01  5.0902444593516538e-01  5.0906809876489700e-01  5.0905300862604141e-01  5.0894933353485394e-01  5.0870165552900937e-01  5.0821329946421812e-01  5.0733531598075809e-01  5.0584772291706992e-01  5.0347804167576338e-01  4.9990477694022634e-01  4.9479625451264136e-01  4.8818769997070260e-01  4.7903959169332150e-01  4.7080911098067246e-01  4.5274257004995916e-01  4.9489458494514177e-01  3.9951163925754851e-01  6.1476034166162055e-02  2.5253187695421171e+00  -1.5489039695191631e-01  6.4867519154441100e-01  4.1876083296050048e-01  4.7992558429006438e-01  4.8066655340057568e-01  4.8795334129386325e-01  4.9330461022447358e-01  4.9730932342790690e-01  5.0009007393162352e-01  5.0190178259208074e-01  5.0299979178014953e-01  5.0361793560652190e-01  5.0393676820442401e-01  5.0408369531955632e-01  5.0414078936155027e-01  5.0415730640891931e-01  5.0416108563076423e-01  5.0416712172733724e-01  5.0418303283696964e-01  5.0421210266525041e-01  5.0425475507412931e-01  5.0430920559244008e-01  5.0437183061459068e-01  5.0443758803727223e-01  5.0450063668232981e-01  5.0455512849839390e-01  5.0459600399614002e-01  5.0461954227430206e-01  5.0462342788633452e-01  5.0460612554828987e-01  5.0456536692694265e-01  5.0449531101634182e-01  5.0438196091416199e-01  5.0419559912104228e-01  5.0388099524747099e-01  5.0334289070568139e-01  5.0243673793466237e-01  5.0095460012801907e-01  4.9864597875363176e-01  4.9523680626534550e-01  4.9044871634258602e-01  4.8445155979764581e-01  4.7619317019442375e-01  4.6940559303585216e-01  4.5258514645900633e-01  4.9651886252135113e-01  4.0426975303151641e-01  6.2071172545084180e-02  2.5297863920683317e+00  -1.5460561611745982e-01  6.4914628220966986e-01  4.1187086003743367e-01  4.8224304760059006e-01  4.7697307044916420e-01  4.8512257157228583e-01  4.9038957372215808e-01  4.9430420993279345e-01  4.9713203597824740e-01  4.9899073233530344e-01  5.0014799031225055e-01  5.0082420340716938e-01  5.0119683215722688e-01  5.0139197516853873e-01  5.0149161677144860e-01  5.0154538280516137e-01  5.0158180315186407e-01  5.0161684977349474e-01  5.0165935011154328e-01  5.0171388622542012e-01  5.0178202369468039e-01  5.0186267099521342e-01  5.0195221751068886e-01  5.0204489823439891e-01  5.0213361040177606e-01  5.0221112615988028e-01  5.0227137211745820e-01  5.0231031036973273e-01  5.0232604949068893e-01  5.0231800446231734e-01  5.0228505116794175e-01  5.0222239592291151e-01  5.0211684984415605e-01  5.0193934828594444e-01  5.0163554355445250e-01  5.0111209199998619e-01  5.0022888949418354e-01  4.9878678172224628e-01  4.9655198520823646e-01  4.9327405400897595e-01  4.8871429369538621e-01  4.8306499577557699e-01  4.7534026138913416e-01  4.6916973882579638e-01  4.5312144823851258e-01  4.9756994884660299e-01  4.0585815452462143e-01  6.0493716067858375e-02  2.5335128572792160e+00  -1.5248864261322764e-01  6.5063735036434744e-01  4.1255518794489271e-01  4.8373175985917849e-01  4.7587163203089411e-01  4.8500796728081363e-01  4.8984433522339560e-01  4.9360381785643243e-01  4.9638667365293498e-01  4.9818038260023795e-01  4.9929834986145477e-01  4.9993678276105719e-01  5.0027308081376343e-01  5.0043136201343330e-01  5.0049348848856612e-01  5.0050963908255319e-01  5.0050959070612466e-01  5.0051107431988084e-01  5.0052502701341306e-01  5.0055813039787045e-01  5.0061351579109814e-01  5.0069054427423032e-01  5.0078452517455918e-01  5.0088705662520028e-01  5.0098738883404537e-01  5.0107466355307884e-01  5.0114028771156849e-01  5.0117944982982354e-01  5.0119116511781125e-01  5.0117684462938605e-01  5.0113771650006578e-01  5.0107113758115329e-01  5.0096562714438453e-01  5.0079347482785519e-01  5.0050172979726271e-01  4.9999917974644009e-01  4.9914965007656620e-01  4.9776088900461579e-01  4.9561057172812911e-01  4.9246383390772719e-01  4.8810215030674925e-01  4.8273328068425170e-01  4.7538350711739158e-01  4.6965031392510725e-01  4.5410729686513973e-01  4.9903679731831924e-01  4.0885320375151418e-01  6.1563212699113828e-02  2.5366263811319576e+00  -1.5094513979548999e-01  6.5142688585090092e-01  4.1316464688763999e-01  4.8399786652879911e-01  4.7560678088224467e-01  4.8507425075876892e-01  4.8948812023605687e-01  4.9322498678925802e-01  4.9597524254827197e-01  4.9772594327321518e-01  4.9882710051344709e-01  4.9944528391843557e-01  4.9976229754127849e-01  4.9989909811322458e-01  4.9993755436657322e-01  4.9992864940858472e-01  4.9990401217905195e-01  4.9988409510392878e-01  4.9988329168669021e-01  4.9991178324212932e-01  4.9997532711437659e-01  5.0007391385100297e-01  5.0020061352819933e-01  5.0034181526077892e-01  5.0047972998297707e-01  5.0059682588426957e-01  5.0068041804999941e-01  5.0072516247051457e-01  5.0073251286176379e-01  5.0070782218658927e-01  5.0065633198615089e-01  5.0057861500514278e-01  5.0046536564913469e-01  5.0029022459190409e-01  5.0000125282322894e-01  4.9950855873265348e-01  4.9867840010456671e-01  4.9732279645515715e-01  4.9522659278858339e-01  4.9216397012613960e-01  4.8792939525932527e-01  4.8273612067569349e-01  4.7562907605573362e-01  4.7016487522741546e-01  4.5496834564329297e-01  5.0022367004562784e-01  4.1119815842828800e-01  6.1867676240180365e-02  2.5392941552700470e+00  -1.4978644417731826e-01  6.5208266572065909e-01  4.1377597657009318e-01  4.8430746402985569e-01  4.7578200674101867e-01  4.8519161923417364e-01  4.8939903206598240e-01  4.9315611668576631e-01  4.9585878068540701e-01  4.9758188797768976e-01  4.9866956124271733e-01  4.9926829428014197e-01  4.9956568698362408e-01  4.9967835161209684e-01  4.9968852276200915e-01  4.9964831452698177e-01  4.9959180180700280e-01  4.9954359736858994e-01  4.9952376998308734e-01  4.9954842190373078e-01  4.9962818049978175e-01  4.9976446519717349e-01  4.9994644882733047e-01  5.0015085181326646e-01  5.0034681555511162e-01  5.0050520861170289e-01  5.0060773866710284e-01  5.0065051446295494e-01  5.0064118700284832e-01  5.0059265325392854e-01  5.0051653929723794e-01  5.0041762454419758e-01  5.0028874197198681e-01  5.0010425505407352e-01  4.9981231218775540e-01  4.9932320411197262e-01  4.9850417969202143e-01  4.9716955728256906e-01  4.9510869637178645e-01  4.9210145427543478e-01  4.8795183729190250e-01  4.8287646642110443e-01  4.7593953521092858e-01  4.7066367945147380e-01  4.5573791691958732e-01  5.0125840012367884e-01  4.1331267520903825e-01  6.2209154342971612e-02  2.5415490015370636e+00  -1.4898242597389025e-01  6.5261429297136642e-01  4.1426662758738714e-01  4.8457531806973608e-01  4.7596834690760470e-01  4.8528644505967050e-01  4.8942639227348783e-01  4.9318010370507637e-01  4.9584374718277724e-01  4.9755750513984848e-01  4.9863533008585553e-01  4.9921934837233711e-01  4.9949914806688578e-01  4.9958671130781285e-01  4.9956459430309830e-01  4.9948600449307029e-01  4.9938757204766882e-01  4.9930043335492852e-01  4.9925339858711215e-01  4.9927256058472413e-01  4.9937821321823733e-01  4.9957519799644717e-01  4.9984633157682667e-01  5.0015017463844291e-01  5.0043105012163613e-01  5.0063998712950597e-01  5.0075306035878375e-01  5.0077429287181030e-01  5.0072553345853876e-01  5.0063304300617040e-01  5.0051743063320642e-01  5.0038778490228530e-01  5.0023786945126647e-01  5.0004117382049096e-01  4.9974441876760434e-01  4.9925675215685072e-01  4.9844516322105686e-01  4.9712491356174721e-01  4.9508823676004377e-01  4.9211881968179094e-01  4.8802841054359253e-01  4.8303590191629686e-01  4.7622551698254634e-01  4.7108862268096485e-01  4.5638143364126327e-01  5.0211472919392464e-01  4.1511550182610868e-01  6.2492756097160880e-02  2.5434398726095955e+00  -1.4845857015347008e-01  6.5304199829698162e-01  4.1462371026362338e-01  4.8477514349730999e-01  4.7611113808932287e-01  4.8536958898031463e-01  4.8947980080596809e-01  4.9321769793729653e-01  4.9586499851455412e-01  4.9757925603026298e-01  4.9865151459178292e-01  4.9922685902002623e-01  4.9949169708677649e-01  4.9955391581855951e-01  4.9949538733918480e-01  4.9936936584417285e-01  4.9921433319354325e-01  4.9907167045593215e-01  4.9898112382483817e-01  4.9898696564754857e-01  4.9912889436589258e-01  4.9941926632083594e-01  4.9983207906480931e-01  5.0029005830584061e-01  5.0068813443185078e-01  5.0094452148792401e-01  5.0103668424777170e-01  5.0099391332030019e-01  5.0086732599038586e-01  5.0070393007962499e-01  5.0053404616209940e-01  5.0036830984107483e-01  5.0019780624207533e-01  4.9999205737851354e-01  4.9969417182472164e-01  4.9921075185508978e-01  4.9840759023386755e-01  4.9710010130842802e-01  4.9508251102679041e-01  4.9214130916456311e-01  4.8809487418346748e-01  4.8316369508573714e-01  4.7645150670943437e-01  4.7142097960349916e-01  4.5689438662553544e-01  5.0280065669614382e-01  4.1662214149440041e-01  6.2717628329859013e-02  2.5450085355695751e+00  -1.4814141595649508e-01  6.5339254065934838e-01  4.1487789007252351e-01  4.8492787310886426e-01  4.7622176593573118e-01  4.8544233688138400e-01  4.8953399725424140e-01  4.9326267928267531e-01  4.9590912272586934e-01  4.9762819704898720e-01  4.9870158451064162e-01  4.9927536763482722e-01  4.9953026446550747e-01  4.9957017851739582e-01  4.9947414925562145e-01  4.9929247420594086e-01  4.9906412107984988e-01  4.9884369819351082e-01  4.9867948775602128e-01  4.9865431177352715e-01  4.9884060211926906e-01  4.9927005963073157e-01  4.9991192900133358e-01  5.0060960199994864e-01  5.0115463123210757e-01  5.0141742479663531e-01  5.0140863890534970e-01  5.0122312114134748e-01  5.0096422422898346e-01  5.0070357836783563e-01  5.0047465245205602e-01  5.0028074878305984e-01  5.0010296440636148e-01  4.9990216951490724e-01  4.9961540197249232e-01  4.9914570831021687e-01  4.9835740532700773e-01  4.9706599862360423e-01  4.9506752073125992e-01  4.9215088748618468e-01  4.8814038116604352e-01  4.8325768314692807e-01  4.7662476096824713e-01  4.7167809826786944e-01  4.5730180273446480e-01  5.0334880759225575e-01  4.1787270220361911e-01  6.2903045442002314e-02  2.5462900688788750e+00  -1.4796803106837844e-01  6.5368390009001265e-01  4.1505654117136032e-01  4.8504780211696563e-01  4.7630783924321612e-01  4.8550568002794664e-01  4.8958763952557049e-01  4.9331630418483424e-01  4.9597023505983251e-01  4.9770017769244218e-01  4.9878456058404524e-01  4.9936732432800002e-01  4.9962378596204610e-01  4.9965313859857646e-01  4.9952847290565638e-01  4.9929209210427850e-01  4.9898114794619725e-01  4.9865767938632116e-01  4.9837065783666984e-01  4.9828398649034028e-01  4.9850202096813007e-01  4.9913530976775228e-01  5.0016773206343446e-01  5.0123810363212451e-01  5.0192457732088036e-01  5.0205368993529442e-01  5.0177262251765953e-01  5.0132079237882377e-01  5.0087331451749106e-01  5.0051070213444648e-01  5.0024659659013404e-01  5.0005871949332881e-01  4.9990751436929243e-01  4.9974030649254869e-01  4.9948671591975563e-01  4.9904662135983296e-01  4.9828384426024563e-01  4.9701492994889818e-01  4.9503830013751671e-01  4.9214551140965562e-01  4.8816634918137658e-01  4.8332359755297905e-01  4.7675562561873602e-01  4.7187575947053562e-01  4.5762338922392726e-01  5.0378383315853503e-01  4.1889691121683043e-01  6.3051762728684221e-02  2.5473112819994101e+00  -1.4788948302420890e-01  6.5392571981432157e-01  4.1518090523737122e-01  4.8514477473918655e-01  4.7637708040767041e-01  4.8556384131351121e-01  4.8964304084640614e-01  4.9337847849679550e-01  4.9604624226187921e-01  4.9779516919381334e-01  4.9890222389527528e-01  4.9950902334745040e-01  4.9978720852606390e-01  4.9983105288581320e-01  4.9970522216642232e-01  4.9943963080189369e-01  4.9906319169726310e-01  4.9862025813936600e-01  4.9815435857251877e-01  4.9795384251236446e-01  4.9810816560754667e-01  4.9905813944874466e-01  5.0079276118856186e-01  5.0242374875532747e-01  5.0311576360642640e-01  5.0274409178772872e-01  5.0188604192142616e-01  5.0102724180989622e-01  5.0038279364387561e-01  4.9997766587172182e-01  4.9975725243039343e-01  4.9964910445418398e-01  4.9958363526022104e-01  4.9949358970238616e-01  4.9930344897786921e-01  4.9891303525583997e-01  4.9818848215165834e-01  4.9694948740683376e-01  4.9499816309047379e-01  4.9212940231651953e-01  4.8817830692602981e-01  4.8336896996623846e-01  4.7685386697264653e-01  4.7202693016086783e-01  4.5787431755157426e-01  5.0412467991975396e-01  4.1971764049698823e-01  6.3167641476044686e-02  2.5480917168820176e+00  -1.4786968687467011e-01  6.5412085144524534e-01  4.1526471399656040e-01  4.8522247859651035e-01  4.7643243913000538e-01  4.8561631783610271e-01  4.8969740458432337e-01  4.9344409758689783e-01  4.9613054331253620e-01  4.9790559570679743e-01  4.9904631385610737e-01  4.9969418115943287e-01  5.0002027982589203e-01  5.0011675167000735e-01  5.0004212099099510e-01  4.9981505039573609e-01  4.9944441113769961e-01  4.9892153410725087e-01  4.9828124094743526e-01  4.9786895886124527e-01  4.9767485897549696e-01  4.9916064075842403e-01  5.0211628389229190e-01  5.0456014085854894e-01  5.0482602826939382e-01  5.0313486688532283e-01  5.0124835187436501e-01  4.9994952494730116e-01  4.9925261292386325e-01  4.9898261530859811e-01  4.9895812914017257e-01  4.9904202757874477e-01  4.9913885021695548e-01  4.9917543293871952e-01  4.9907944268114129e-01  4.9875705581068980e-01  4.9808116356407006e-01  4.9687747109730301e-01  4.9495337350394325e-01  4.9210792926640889e-01  4.8818133381209405e-01  4.8339934665880568e-01  4.7692575583313018e-01  4.7213965072495140e-01  4.5806367925121461e-01  5.0438313229390552e-01  4.2034810687651425e-01  6.3251887787051625e-02  2.5486452038488370e+00  -1.4788277383662296e-01  6.5426837833017892e-01  4.1531638622350081e-01  4.8528078017677856e-01  4.7647349011378787e-01  4.8565930208124874e-01  4.8974449647694579e-01  4.9350382435847545e-01  4.9621007743373069e-01  4.9801351368307328e-01  4.9919297528832290e-01  4.9989258608568038e-01  5.0028710085619454e-01  5.0047293230395828e-01  5.0051218277685339e-01  5.0042439132502270e-01  5.0020158469680032e-01  4.9978543503935163e-01  4.9916518747661642e-01  4.9839536964331249e-01  4.9721609795620314e-01  4.9921800217138412e-01  5.0453043450239310e-01  5.0854874147637763e-01  5.0718081219657796e-01  5.0236829835117580e-01  4.9922436752522892e-01  4.9773719708173625e-01  4.9739410710091336e-01  4.9756422141598261e-01  4.9793044861877989e-01  4.9831990253903702e-01  4.9864153408310713e-01  4.9883745591704887e-01  4.9885167175681300e-01  4.9860435797933927e-01  4.9797941283655173e-01  4.9681078034366877e-01  4.9491208781033086e-01  4.9208691050626829e-01  4.8817990037342340e-01  4.8341874977678850e-01  4.7697520041582497e-01  4.7221872237924828e-01  4.5819664063193094e-01  5.0456622002394091e-01  4.2079501411856945e-01  6.3304889464033037e-02  2.5489811223990455e+00  -1.4791109911751280e-01  6.5436594121736202e-01  4.1534098427331773e-01  4.8531792202286572e-01  4.7649836073185925e-01  4.8568780237334380e-01  4.8977672434731379e-01  4.9354610479253391e-01  4.9626771675437864e-01  4.9809359562652783e-01  4.9930491178694891e-01  5.0004953713250044e-01  5.0050821110664001e-01  5.0078659963799455e-01  5.0096112543323934e-01  5.0107358640146771e-01  5.0114528286568805e-01  5.0117415062601178e-01  5.0118286175597981e-01  5.0091360604178847e-01  4.9968430979440781e-01  5.0126421758539796e-01  5.0891107050326956e-01  5.1626840048657840e-01  5.1294349585718224e-01  4.9904048229754328e-01  4.9505643592029697e-01  4.9470935559482937e-01  4.9522062337369782e-01  4.9610622088731826e-01  4.9696681315943608e-01  4.9768745036021877e-01  4.9822811278464790e-01  4.9856806560912931e-01  4.9867642446809296e-01  4.9849040957675184e-01  4.9790546540147806e-01  4.9676335978412761e-01  4.9488311569132298e-01  4.9207205510320701e-01  4.8817789174462367e-01  4.8343019805004861e-01  4.7700473842006336e-01  4.7226704594163427e-01  4.5827610468457419e-01  5.0467800495217552e-01  4.2106121435075128e-01  6.3326735615554630e-02  2.5491051537668095e+00  -1.4794424223384534e-01  6.5441120040126843e-01  4.1534139830880051e-01  4.8533202939257408e-01  4.7650526107990321e-01  4.8569766440155593e-01  4.8978784418409987e-01  4.9356122825607440e-01  4.9628856988383158e-01  4.9812277880011957e-01  4.9934601798617195e-01  5.0010779729697297e-01  5.0059168518879171e-01  5.0090811006474656e-01  5.0114208118116776e-01  5.0135185820818606e-01  5.0159223676395259e-01  5.0193719553342053e-01  5.0249888448792135e-01  5.0323461850821061e-01  5.0361349060350513e-01  5.0399779347485396e-01  5.2300468187266036e-01  5.2113626841617056e-01  5.1966576837077316e-01  5.1050710243529596e-01  4.8978855001090921e-01  4.9227976476626129e-01  4.9394338804242910e-01  4.9537698478476472e-01  4.9652708530839312e-01  4.9741645322082484e-01  4.9805886284249118e-01  4.9846183221144658e-01  4.9860957806690631e-01  4.9844828737730246e-01  4.9787895590487918e-01  4.9674692537159099e-01  4.9487351341048119e-01  4.9206770776512881e-01  4.8817809085207525e-01  4.8343568044932966e-01  4.7701589716969273e-01  4.7228623470145986e-01  4.58