<?xml version="1.0"?>
<VTKFile type="UnstructuredGrid"  version="0.1"  >
<UnstructuredGrid>
<Piece  NumberOfPoints="1617" NumberOfCells="3072">
<Points>
<DataArray  type="Float64"  NumberOfComponents="3"  format="ascii">0 0 0  0.03125 0 0  0.0625 0 0  0.09375 0 0  0.125 0 0  0.15625 0 0  0.1875 0 0  0.21875 0 0  0.25 0 0  0.28125 0 0  0.3125 0 0  0.34375 0 0  0.375 0 0  0.40625 0 0  0.4375 0 0  0.46875 0 0  0.5 0 0  0.53125 0 0  0.5625 0 0  0.59375 0 0  0.625 0 0  0.65625 0 0  0.6875 0 0  0.71875 0 0  0.75 0 0  0.78125 0 0  0.8125 0 0  0.84375 0 0  0.875 0 0  0.90625 0 0  0.9375 0 0  0.96875 0 0  1 0 0  1.03125 0 0  1.0625 0 0  1.09375 0 0  1.125 0 0  1.15625 0 0  1.1875 0 0  1.21875 0 0  1.25 0 0  1.28125 0 0  1.3125 0 0  1.34375 0 0  1.375 0 0  1.40625 0 0  1.4375 0 0  1.46875 0 0  1.5 0 0  0 0.03125 0  0.03125 0.03125 0  0.0625 0.03125 0  0.09375 0.03125 0  0.125 0.03125 0  0.15625 0.03125 0  0.1875 0.03125 0  0.21875 0.03125 0  0.25 0.03125 0  0.28125 0.03125 0  0.3125 0.03125 0  0.34375 0.03125 0  0.375 0.03125 0  0.40625 0.03125 0  0.4375 0.03125 0  0.46875 0.03125 0  0.5 0.03125 0  0.53125 0.03125 0  0.5625 0.03125 0  0.59375 0.03125 0  0.625 0.03125 0  0.65625 0.03125 0  0.6875 0.03125 0  0.71875 0.03125 0  0.75 0.03125 0  0.78125 0.03125 0  0.8125 0.03125 0  0.84375 0.03125 0  0.875 0.03125 0  0.90625 0.03125 0  0.9375 0.03125 0  0.96875 0.03125 0  1 0.03125 0  1.03125 0.03125 0  1.0625 0.03125 0  1.09375 0.03125 0  1.125 0.03125 0  1.15625 0.03125 0  1.1875 0.03125 0  1.21875 0.03125 0  1.25 0.03125 0  1.28125 0.03125 0  1.3125 0.03125 0  1.34375 0.03125 0  1.375 0.03125 0  1.40625 0.03125 0  1.4375 0.03125 0  1.46875 0.03125 0  1.5 0.03125 0  0 0.0625 0  0.03125 0.0625 0  0.0625 0.0625 0  0.09375 0.0625 0  0.125 0.0625 0  0.15625 0.0625 0  0.1875 0.0625 0  0.21875 0.0625 0  0.25 0.0625 0  0.28125 0.0625 0  0.3125 0.0625 0  0.34375 0.0625 0  0.375 0.0625 0  0.40625 0.0625 0  0.4375 0.0625 0  0.46875 0.0625 0  0.5 0.0625 0  0.53125 0.0625 0  0.5625 0.0625 0  0.59375 0.0625 0  0.625 0.0625 0  0.65625 0.0625 0  0.6875 0.0625 0  0.71875 0.0625 0  0.75 0.0625 0  0.78125 0.0625 0  0.8125 0.0625 0  0.84375 0.0625 0  0.875 0.0625 0  0.90625 0.0625 0  0.9375 0.0625 0  0.96875 0.0625 0  1 0.0625 0  1.03125 0.0625 0  1.0625 0.0625 0  1.09375 0.0625 0  1.125 0.0625 0  1.15625 0.0625 0  1.1875 0.0625 0  1.21875 0.0625 0  1.25 0.0625 0  1.28125 0.0625 0  1.3125 0.0625 0  1.34375 0.0625 0  1.375 0.0625 0  1.40625 0.0625 0  1.4375 0.0625 0  1.46875 0.0625 0  1.5 0.0625 0  0 0.09375 0  0.03125 0.09375 0  0.0625 0.09375 0  0.09375 0.09375 0  0.125 0.09375 0  0.15625 0.09375 0  0.1875 0.09375 0  0.21875 0.09375 0  0.25 0.09375 0  0.28125 0.09375 0  0.3125 0.09375 0  0.34375 0.09375 0  0.375 0.09375 0  0.40625 0.09375 0  0.4375 0.09375 0  0.46875 0.09375 0  0.5 0.09375 0  0.53125 0.09375 0  0.5625 0.09375 0  0.59375 0.09375 0  0.625 0.09375 0  0.65625 0.09375 0  0.6875 0.09375 0  0.71875 0.09375 0  0.75 0.09375 0  0.78125 0.09375 0  0.8125 0.09375 0  0.84375 0.09375 0  0.875 0.09375 0  0.90625 0.09375 0  0.9375 0.09375 0  0.96875 0.09375 0  1 0.09375 0  1.03125 0.09375 0  1.0625 0.09375 0  1.09375 0.09375 0  1.125 0.09375 0  1.15625 0.09375 0  1.1875 0.09375 0  1.21875 0.09375 0  1.25 0.09375 0  1.28125 0.09375 0  1.3125 0.09375 0  1.34375 0.09375 0  1.375 0.09375 0  1.40625 0.09375 0  1.4375 0.09375 0  1.46875 0.09375 0  1.5 0.09375 0  0 0.125 0  0.03125 0.125 0  0.0625 0.125 0  0.09375 0.125 0  0.125 0.125 0  0.15625 0.125 0  0.1875 0.125 0  0.21875 0.125 0  0.25 0.125 0  0.28125 0.125 0  0.3125 0.125 0  0.34375 0.125 0  0.375 0.125 0  0.40625 0.125 0  0.4375 0.125 0  0.46875 0.125 0  0.5 0.125 0  0.53125 0.125 0  0.5625 0.125 0  0.59375 0.125 0  0.625 0.125 0  0.65625 0.125 0  0.6875 0.125 0  0.71875 0.125 0  0.75 0.125 0  0.78125 0.125 0  0.8125 0.125 0  0.84375 0.125 0  0.875 0.125 0  0.90625 0.125 0  0.9375 0.125 0  0.96875 0.125 0  1 0.125 0  1.03125 0.125 0  1.0625 0.125 0  1.09375 0.125 0  1.125 0.125 0  1.15625 0.125 0  1.1875 0.125 0  1.21875 0.125 0  1.25 0.125 0  1.28125 0.125 0  1.3125 0.125 0  1.34375 0.125 0  1.375 0.125 0  1.40625 0.125 0  1.4375 0.125 0  1.46875 0.125 0  1.5 0.125 0  0 0.15625 0  0.03125 0.15625 0  0.0625 0.15625 0  0.09375 0.15625 0  0.125 0.15625 0  0.15625 0.15625 0  0.1875 0.15625 0  0.21875 0.15625 0  0.25 0.15625 0  0.28125 0.15625 0  0.3125 0.15625 0  0.34375 0.15625 0  0.375 0.15625 0  0.40625 0.15625 0  0.4375 0.15625 0  0.46875 0.15625 0  0.5 0.15625 0  0.53125 0.15625 0  0.5625 0.15625 0  0.59375 0.15625 0  0.625 0.15625 0  0.65625 0.15625 0  0.6875 0.15625 0  0.71875 0.15625 0  0.75 0.15625 0  0.78125 0.15625 0  0.8125 0.15625 0  0.84375 0.15625 0  0.875 0.15625 0  0.90625 0.15625 0  0.9375 0.15625 0  0.96875 0.15625 0  1 0.15625 0  1.03125 0.15625 0  1.0625 0.15625 0  1.09375 0.15625 0  1.125 0.15625 0  1.15625 0.15625 0  1.1875 0.15625 0  1.21875 0.15625 0  1.25 0.15625 0  1.28125 0.15625 0  1.3125 0.15625 0  1.34375 0.15625 0  1.375 0.15625 0  1.40625 0.15625 0  1.4375 0.15625 0  1.46875 0.15625 0  1.5 0.15625 0  0 0.1875 0  0.03125 0.1875 0  0.0625 0.1875 0  0.09375 0.1875 0  0.125 0.1875 0  0.15625 0.1875 0  0.1875 0.1875 0  0.21875 0.1875 0  0.25 0.1875 0  0.28125 0.1875 0  0.3125 0.1875 0  0.34375 0.1875 0  0.375 0.1875 0  0.40625 0.1875 0  0.4375 0.1875 0  0.46875 0.1875 0  0.5 0.1875 0  0.53125 0.1875 0  0.5625 0.1875 0  0.59375 0.1875 0  0.625 0.1875 0  0.65625 0.1875 0  0.6875 0.1875 0  0.71875 0.1875 0  0.75 0.1875 0  0.78125 0.1875 0  0.8125 0.1875 0  0.84375 0.1875 0  0.875 0.1875 0  0.90625 0.1875 0  0.9375 0.1875 0  0.96875 0.1875 0  1 0.1875 0  1.03125 0.1875 0  1.0625 0.1875 0  1.09375 0.1875 0  1.125 0.1875 0  1.15625 0.1875 0  1.1875 0.1875 0  1.21875 0.1875 0  1.25 0.1875 0  1.28125 0.1875 0  1.3125 0.1875 0  1.34375 0.1875 0  1.375 0.1875 0  1.40625 0.1875 0  1.4375 0.1875 0  1.46875 0.1875 0  1.5 0.1875 0  0 0.21875 0  0.03125 0.21875 0  0.0625 0.21875 0  0.09375 0.21875 0  0.125 0.21875 0  0.15625 0.21875 0  0.1875 0.21875 0  0.21875 0.21875 0  0.25 0.21875 0  0.28125 0.21875 0  0.3125 0.21875 0  0.34375 0.21875 0  0.375 0.21875 0  0.40625 0.21875 0  0.4375 0.21875 0  0.46875 0.21875 0  0.5 0.21875 0  0.53125 0.21875 0  0.5625 0.21875 0  0.59375 0.21875 0  0.625 0.21875 0  0.65625 0.21875 0  0.6875 0.21875 0  0.71875 0.21875 0  0.75 0.21875 0  0.78125 0.21875 0  0.8125 0.21875 0  0.84375 0.21875 0  0.875 0.21875 0  0.90625 0.21875 0  0.9375 0.21875 0  0.96875 0.21875 0  1 0.21875 0  1.03125 0.21875 0  1.0625 0.21875 0  1.09375 0.21875 0  1.125 0.21875 0  1.15625 0.21875 0  1.1875 0.21875 0  1.21875 0.21875 0  1.25 0.21875 0  1.28125 0.21875 0  1.3125 0.21875 0  1.34375 0.21875 0  1.375 0.21875 0  1.40625 0.21875 0  1.4375 0.21875 0  1.46875 0.21875 0  1.5 0.21875 0  0 0.25 0  0.03125 0.25 0  0.0625 0.25 0  0.09375 0.25 0  0.125 0.25 0  0.15625 0.25 0  0.1875 0.25 0  0.21875 0.25 0  0.25 0.25 0  0.28125 0.25 0  0.3125 0.25 0  0.34375 0.25 0  0.375 0.25 0  0.40625 0.25 0  0.4375 0.25 0  0.46875 0.25 0  0.5 0.25 0  0.53125 0.25 0  0.5625 0.25 0  0.59375 0.25 0  0.625 0.25 0  0.65625 0.25 0  0.6875 0.25 0  0.71875 0.25 0  0.75 0.25 0  0.78125 0.25 0  0.8125 0.25 0  0.84375 0.25 0  0.875 0.25 0  0.90625 0.25 0  0.9375 0.25 0  0.96875 0.25 0  1 0.25 0  1.03125 0.25 0  1.0625 0.25 0  1.09375 0.25 0  1.125 0.25 0  1.15625 0.25 0  1.1875 0.25 0  1.21875 0.25 0  1.25 0.25 0  1.28125 0.25 0  1.3125 0.25 0  1.34375 0.25 0  1.375 0.25 0  1.40625 0.25 0  1.4375 0.25 0  1.46875 0.25 0  1.5 0.25 0  0 0.28125 0  0.03125 0.28125 0  0.0625 0.28125 0  0.09375 0.28125 0  0.125 0.28125 0  0.15625 0.28125 0  0.1875 0.28125 0  0.21875 0.28125 0  0.25 0.28125 0  0.28125 0.28125 0  0.3125 0.28125 0  0.34375 0.28125 0  0.375 0.28125 0  0.40625 0.28125 0  0.4375 0.28125 0  0.46875 0.28125 0  0.5 0.28125 0  0.53125 0.28125 0  0.5625 0.28125 0  0.59375 0.28125 0  0.625 0.28125 0  0.65625 0.28125 0  0.6875 0.28125 0  0.71875 0.28125 0  0.75 0.28125 0  0.78125 0.28125 0  0.8125 0.28125 0  0.84375 0.28125 0  0.875 0.28125 0  0.90625 0.28125 0  0.9375 0.28125 0  0.96875 0.28125 0  1 0.28125 0  1.03125 0.28125 0  1.0625 0.28125 0  1.09375 0.28125 0  1.125 0.28125 0  1.15625 0.28125 0  1.1875 0.28125 0  1.21875 0.28125 0  1.25 0.28125 0  1.28125 0.28125 0  1.3125 0.28125 0  1.34375 0.28125 0  1.375 0.28125 0  1.40625 0.28125 0  1.4375 0.28125 0  1.46875 0.28125 0  1.5 0.28125 0  0 0.3125 0  0.03125 0.3125 0  0.0625 0.3125 0  0.09375 0.3125 0  0.125 0.3125 0  0.15625 0.3125 0  0.1875 0.3125 0  0.21875 0.3125 0  0.25 0.3125 0  0.28125 0.3125 0  0.3125 0.3125 0  0.34375 0.3125 0  0.375 0.3125 0  0.40625 0.3125 0  0.4375 0.3125 0  0.46875 0.3125 0  0.5 0.3125 0  0.53125 0.3125 0  0.5625 0.3125 0  0.59375 0.3125 0  0.625 0.3125 0  0.65625 0.3125 0  0.6875 0.3125 0  0.71875 0.3125 0  0.75 0.3125 0  0.78125 0.3125 0  0.8125 0.3125 0  0.84375 0.3125 0  0.875 0.3125 0  0.90625 0.3125 0  0.9375 0.3125 0  0.96875 0.3125 0  1 0.3125 0  1.03125 0.3125 0  1.0625 0.3125 0  1.09375 0.3125 0  1.125 0.3125 0  1.15625 0.3125 0  1.1875 0.3125 0  1.21875 0.3125 0  1.25 0.3125 0  1.28125 0.3125 0  1.3125 0.3125 0  1.34375 0.3125 0  1.375 0.3125 0  1.40625 0.3125 0  1.4375 0.3125 0  1.46875 0.3125 0  1.5 0.3125 0  0 0.34375 0  0.03125 0.34375 0  0.0625 0.34375 0  0.09375 0.34375 0  0.125 0.34375 0  0.15625 0.34375 0  0.1875 0.34375 0  0.21875 0.34375 0  0.25 0.34375 0  0.28125 0.34375 0  0.3125 0.34375 0  0.34375 0.34375 0  0.375 0.34375 0  0.40625 0.34375 0  0.4375 0.34375 0  0.46875 0.34375 0  0.5 0.34375 0  0.53125 0.34375 0  0.5625 0.34375 0  0.59375 0.34375 0  0.625 0.34375 0  0.65625 0.34375 0  0.6875 0.34375 0  0.71875 0.34375 0  0.75 0.34375 0  0.78125 0.34375 0  0.8125 0.34375 0  0.84375 0.34375 0  0.875 0.34375 0  0.90625 0.34375 0  0.9375 0.34375 0  0.96875 0.34375 0  1 0.34375 0  1.03125 0.34375 0  1.0625 0.34375 0  1.09375 0.34375 0  1.125 0.34375 0  1.15625 0.34375 0  1.1875 0.34375 0  1.21875 0.34375 0  1.25 0.34375 0  1.28125 0.34375 0  1.3125 0.34375 0  1.34375 0.34375 0  1.375 0.34375 0  1
[...]
<PointData  Scalars="f_81"> 
<DataArray  type="Float64"  Name="f_81"  format="ascii">7.8956945611516768e-02  5.3271608542644078e-01  6.0787672695446759e-01  6.0924560392510563e-01  6.1580126065492535e-01  6.1912627735099968e-01  6.1985627554510181e-01  6.1842652283711430e-01  6.1527313389286953e-01  6.1089187338164874e-01  6.0572215472649249e-01  6.0009892125453967e-01  5.9424538334804955e-01  5.8829574071165935e-01  5.8232434734081318e-01  5.7637021719181369e-01  5.7045330762158220e-01  5.6458366174209396e-01  5.5876581888516463e-01  5.5300062764048130e-01  5.4728589332193689e-01  5.4161669040924421e-01  5.3598578108132100e-01  5.3038434140678992e-01  5.2480302958201286e-01  5.1923329563651166e-01  5.1366873142511249e-01  5.0810621155087177e-01  5.0254660299302867e-01  4.9699490720058936e-01  4.9145981411491391e-01  4.8595279152117210e-01  4.8048662977000600e-01  4.7507407559381443e-01  4.6972381751035452e-01  4.6443982670143558e-01  4.5919950345220251e-01  4.5396930893905096e-01  4.4858467607225627e-01  4.4291525480970279e-01  4.3640862027660315e-01  4.2849702894858382e-01  4.2007330844290053e-01  4.0017557420616090e-01  4.1661152542909674e-01  2.6352962886527087e-01  7.1977958995491775e-01  -7.7871951671438211e-01  2.5918831605180239e+00  1.1484863533705427e-02  3.9492977759625497e-01  4.6114126704158082e-01  4.5041615884209196e-01  4.6158784008205644e-01  4.7269159750516404e-01  4.8131259024343459e-01  4.8745690117840668e-01  4.9165189758770678e-01  4.9441411455944612e-01  4.9624202107576670e-01  4.9752208813303761e-01  4.9851364838607026e-01  4.9937182822292270e-01  5.0018103209865605e-01  5.0098422260715147e-01  5.0180274813843984e-01  5.0264760002797615e-01  5.0352483778642043e-01  5.0443772660227792e-01  5.0538729682130945e-01  5.0637230819333390e-01  5.0738914351575781e-01  5.0843190103887759e-01  5.0949280006733366e-01  5.1056289557506906e-01  5.1163299844986410e-01  5.1269463014962435e-01  5.1374082327216575e-01  5.1476661763611320e-01  5.1576916474725998e-01  5.1674744279113094e-01  5.1770146385087534e-01  5.1863104388116898e-01  5.1953260822550362e-01  5.2039503251299513e-01  5.2118448602362544e-01  5.2183329695115654e-01  5.2218369992130931e-01  5.2198466375559505e-01  5.2082612593081035e-01  5.1787671613655528e-01  5.1390008220589201e-01  5.0181677017417481e-01  5.0735639256876608e-01  4.2962304386976358e-01  6.4641071357129765e-01  -1.3156526297518073e-01  2.6732483115868209e+00  5.6107127743459988e-02  4.0565015657974951e-01  4.8683023619907217e-01  4.6074434041205692e-01  4.7186857533516108e-01  4.8320900042948894e-01  4.9149730401803254e-01  4.9728258725795027e-01  5.0109312229029201e-01  5.0338048218155129e-01  5.0464751233286032e-01  5.0529648305761055e-01  5.0560516765866281e-01  5.0574143730499210e-01  5.0579638704498364e-01  5.0581517263389653e-01  5.0581870155038700e-01  5.0581627706274646e-01  5.0581192496996985e-01  5.0580713038325842e-01  5.0580183873943985e-01  5.0579475680708275e-01  5.0578345937977176e-01  5.0576452898002855e-01  5.0573381842404042e-01  5.0568684949239473e-01  5.0561930490869256e-01  5.0552752570578063e-01  5.0540890844200193e-01  5.0526210961493268e-01  5.0508701021719027e-01  5.0488442819744017e-01  5.0465544808192453e-01  5.0440035161358776e-01  5.0411541507628554e-01  5.0378918719154797e-01  5.0338529253473641e-01  5.0283828429601063e-01  5.0197743122732841e-01  5.0059727235711127e-01  4.9820629391245058e-01  4.9434460158812560e-01  4.8915455192677715e-01  4.7761910512582262e-01  4.8269920845175840e-01  4.0603280855794099e-01  6.4524074083914840e-01  -1.6945154512477964e-01  2.4806102431812995e+00  5.8159039755326672e-02  4.0026322806442166e-01  4.9254577810027583e-01  4.5533954548888717e-01  4.6986564393849789e-01  4.8021093304433460e-01  4.8783567844498310e-01  4.9340170755898605e-01  4.9711058765136379e-01  4.9935585151743084e-01  5.0060498614870719e-01  5.0124855740553131e-01  5.0156191641721526e-01  5.0171230017310287e-01  5.0179061063279295e-01  5.0184161861931720e-01  5.0188582882699018e-01  5.0193232788900277e-01  5.0198523365168057e-01  5.0204645008953741e-01  5.0211660832539062e-01  5.0219524968301410e-01  5.0228078034447210e-01  5.0237046825821496e-01  5.0246062387129387e-01  5.0254701836574411e-01  5.0262549440503634e-01  5.0269262421260930e-01  5.0274622080409781e-01  5.0278554725574576e-01  5.0281117308738277e-01  5.0282453045496234e-01  5.0282708413052013e-01  5.0281918222899868e-01  5.0279676311728894e-01  5.0274764415565198e-01  5.0263447086435753e-01  5.0239033810551847e-01  5.0184710224427609e-01  5.0079841121759228e-01  4.9879282168459582e-01  4.9534332531304609e-01  4.9086137004980729e-01  4.7990402185743003e-01  4.8662781685429013e-01  4.1084528936650827e-01  6.5043392379484355e-01  -1.6417693263840757e-01  2.5292238573301002e+00  5.9186657313050055e-02  4.0219430887752650e-01  4.9595734944222247e-01  4.5384443402021801e-01  4.7064800269272705e-01  4.7918457363780459e-01  4.8662256258525771e-01  4.9213473576658684e-01  4.9579405219510497e-01  4.9803541470078849e-01  4.9928556129786694e-01  4.9993359739729937e-01  5.0025095147937038e-01  5.0040358050631950e-01  5.0048179381998625e-01  5.0052994595916722e-01  5.0056834506242565e-01  5.0060615606415937e-01  5.0064784085331382e-01  5.0069584552102619e-01  5.0075141433704251e-01  5.0081458765126219e-01  5.0088394472693809e-01  5.0095643586225491e-01  5.0102753379184273e-01  5.0109183121242840e-01  5.0114402134157410e-01  5.0117997693925498e-01  5.0119753158242797e-01  5.0119668087765890e-01  5.0117918994058519e-01  5.0114780317078367e-01  5.0110513315346517e-01  5.0105233899272839e-01  5.0098586547051938e-01  5.0089375258657998e-01  5.0073909220275203e-01  5.0045596580685237e-01  4.9987960436118617e-01  4.9881267232157844e-01  4.9681656327188845e-01  4.9345238470507047e-01  4.8910923862970046e-01  4.7858849038991585e-01  4.8553150389591099e-01  4.1094256750638636e-01  6.5017207699697066e-01  -1.6194593316684031e-01  2.5247940559636457e+00  5.9776368465739263e-02  4.0455726347319576e-01  4.9764419312595709e-01  4.5448755978227301e-01  4.7172926966147088e-01  4.7905347134648013e-01  4.8663126198450007e-01  4.9196366550596859e-01  4.9551038730313884e-01  4.9769384934671101e-01  4.9889581893796042e-01  4.9950916806618534e-01  4.9979626638883901e-01  4.9992140287816500e-01  4.9997368772214335e-01  4.9999712298579274e-01  5.0001224264663935e-01  5.0002894539100207e-01  5.0005277792560299e-01  5.0008752203911944e-01  5.0013574236268610e-01  5.0019840129189252e-01  5.0027415716392321e-01  5.0035884796363206e-01  5.0044560119187420e-01  5.0052588511433649e-01  5.0059138869625419e-01  5.0063608368140533e-01  5.0065755732153450e-01  5.0065707992170094e-01  5.0063857893772712e-01  5.0060711156313753e-01  5.0056721637664958e-01  5.0052135589236624e-01  5.0046667285939694e-01  5.0039149393450388e-01  5.0025910492363157e-01  5.0000430895761672e-01  4.9946432154674392e-01  4.9844755927510448e-01  4.9652396972840934e-01  4.9327690299132393e-01  4.8910152802220547e-01  4.7886770487836949e-01  4.8604954368964626e-01  4.1218187815717899e-01  6.5106449474330641e-01  -1.5909998406880480e-01  2.5290424988397033e+00  6.0171061195790278e-02  4.0627672299277051e-01  4.9876132959978375e-01  4.5517053791656553e-01  4.7221461629641720e-01  4.7913649019291593e-01  4.8680854240855226e-01  4.9194824247220126e-01  4.9545227316056717e-01  4.9760712729654655e-01  4.9878497836100122e-01  4.9938278912865347e-01  4.9965401647553559e-01  4.9976347016066580e-01  4.9979929958264235e-01  4.9980562798824790e-01  4.9980372745976392e-01  4.9980479025146513e-01  4.9981613497758548e-01  4.9984390464513984e-01  4.9989303039899413e-01  4.9996623032233339e-01  5.0006239401761809e-01  5.0017526852674854e-01  5.0029339892071267e-01  5.0040212315087484e-01  5.0048743185321576e-01  5.0054012621343780e-01  5.0055804152119132e-01  5.0054540735746045e-01  5.0051026784972363e-01  5.0046153137214822e-01  5.0040653470111984e-01  5.0034931321615217e-01  5.0028758803362805e-01  5.0020960244777979e-01  5.0007839387508701e-01  4.9982865338376481e-01  4.9929859513128821e-01  4.9829947117055712e-01  4.9640643015418834e-01  4.9321753594216378e-01  4.8912325496582182e-01  4.7907033199659571e-01  4.8633902315043137e-01  4.1302422334647021e-01  6.5154656389154342e-01  -1.5702425840145742e-01  2.5314784818384175e+00  6.0459878008973469e-02  4.0751760314442548e-01  4.9952088368446174e-01  4.5563127849349522e-01  4.7252012285543837e-01  4.7930558706699494e-01  4.8693840314937198e-01  4.9196630226775406e-01  4.9547072335114095e-01  4.9760613169296974e-01  4.9877326172907721e-01  4.9936322045258108e-01  4.9962392333899874e-01  4.9972131556887672e-01  4.9974241347032961e-01  4.9973159457677696e-01  4.9971130954455406e-01  4.9969426774663117e-01  4.9969059687479711e-01  4.9971067287480164e-01  4.9976367992403764e-01  4.9985615793721472e-01  4.9998807247718602e-01  5.0014969931138498e-01  5.0032099061438839e-01  5.0047551980292337e-01  5.0058892444074266e-01  5.0064765864147764e-01  5.0065222541868848e-01  5.0061388714045263e-01  5.0054845444936336e-01  5.0047088508853232e-01  5.0039205311539281e-01  5.0031732939272089e-01  5.0024431242741008e-01  5.0016036126726038e-01  5.0002747120595070e-01  4.9977947566464487e-01  4.9925446132273388e-01  4.9826511726193229e-01  4.9638872111821419e-01  4.9323478319985642e-01  4.8918554089784866e-01  4.7925574766645007e-01  4.8655989648146458e-01  4.1368515522614274e-01  6.5188002463438621e-01  -1.5529672867114469e-01  2.5336133613450955e+00  6.0661540718660235e-02  4.0837019835767790e-01  5.0004724156312308e-01  4.5594075439859438e-01  4.7272298729557527e-01  4.7941469156033495e-01  4.8699568770121099e-01  4.9198527536994641e-01  4.9549250996136601e-01  4.9761513701807741e-01  4.9878091077096987e-01  4.9936710224692105e-01  4.9962067247907044e-01  4.9970759372418228e-01  4.9971348946057997e-01  4.9968270813967508e-01  4.9963909831049957e-01  4.9959613789791146e-01  4.9956920913040354e-01  4.9957552051578075e-01  4.9963171815290530e-01  4.9975322572496750e-01  4.9994289185881391e-01  5.0018526096830640e-01  5.0044358880933837e-01  5.0066781508251212e-01  5.0081468504058502e-01  5.0086677993383610e-01  5.0083480283442317e-01  5.0074576776956392e-01  5.0062910347567624e-01  5.0050802073623435e-01  5.0039657481202882e-01  5.0029995764334545e-01  5.0021395789482703e-01  5.0012365732561392e-01  4.9998901634427306e-01  4.9974229278290705e-01  4.9922083797150590e-01  4.9823780394347322e-01  4.9637149724664736e-01  4.9324009507455624e-01  4.8921727270396592e-01  4.7937835275423302e-01  4.8669215123490239e-01  4.1417610265374433e-01  6.5208806768195937e-01  -1.5393611124593196e-01  2.5353804699158324e+00  6.0805271239862943e-02  4.0895424216040105e-01  5.0042229022656781e-01  4.5613898274140618e-01  4.7284348915584462e-01  4.7946663370631248e-01  4.8701821370883808e-01  4.9199302309564313e-01  4.9549825165369871e-01  4.9761772151066086e-01  4.9878697402479444e-01  4.9937197177187848e-01  4.9962099630294571e-01  4.9969833516586609e-01  4.9968765388395997e-01  4.9963261717518664e-01  4.9955756078780844e-01  4.9947478786073718e-01  4.9941071624464506e-01  4.9938956537605628e-01  4.9944339189277742e-01  4.9960792924805619e-01  4.9989086188263404e-01  5.0026914210624585e-01  5.0067164452076340e-01  5.0099770571686808e-01  5.0117061918473227e-01  5.0117831383602285e-01  5.0106235301357960e-01  5.0088203333135251e-01  5.0068737086469273e-01  5.0050945431704075e-01  5.0036184634277125e-01  5.0024549154189279e-01  5.0015120858261231e-01  5.0005980389212523e-01  4.9992813506514711e-01  4.9968640726246222e-01  4.9917098673487420e-01  4.9819518590901596e-01  4.9633776793552292e-01  4.9322412516231134e-01  4.8921929864530600e-01  4.7945236854348144e-01  4.8676412245108491e-01  4.1454590388917445e-01  6.5221372516444076e-01  -1.5284641342400648e-01  2.5368333758340409e+00  6.0908883394496932e-02  4.0935572059695147e-01  5.0070336896358381e-01  4.5627538010601870e-01  4.7292734917691276e-01  4.7950029731025651e-01  4.8703472324572822e-01  4.9199999184199811e-01  4.9550482888766711e-01  4.9762733289968697e-01  4.9880128838980703e-01  4.9938740281039162e-01  4.9963433924448480e-01  4.9970343748791413e-01  4.9967545424240473e-01  4.9959226758678787e-01  4.9947515661822450e-01  4.9933375668121488e-01  4.9921369186119985e-01  4.9913603751625896e-01  4.9917604362686568e-01  4.9940430222007631e-01  4.9983590063552125e-01  5.0045057977699914e-01  5.0109506373680124e-01  5.0155331249740120e-01  5.0169848782209314e-01  5.0156632869011919e-01  5.0127835704213197e-01  5.0095018535491853e-01  5.0065337642484475e-01  5.0041736961662664e-01  5.0024458339215550e-01  5.0012384523976938e-01  5.0003646550478698e-01  4.9995695341575574e-01  4.9983853852105126e-01  4.9960956592493022e-01  4.9910580782940317e-01  4.9814098831108100e-01  4.9629440691681931e-01  4.9319765766299362e-01  4.8920790344622295e-01  4.7950111846809690e-01  4.8680660912001628e-01  4.1483774819001185e-01  6.5229516808762678e-01  -1.5195553944287443e-01  2.5380328409447075e+00  6.0984433937209669e-02  4.0963147027246161e-01  5.0092003519200956e-01  4.5637356832363091e-01  4.7299129464128492e-01  4.7952591767754643e-01  4.8705022611830501e-01  4.9200990140333728e-01  4.9551772691475321e-01  4.9764624163905713e-01  4.9882696988574898e-01  4.9941845318965056e-01  4.9966818669997920e-01  4.9973418914181161e-01  4.9969339832781168e-01  4.9958357455444319e-01  4.9941674364697253e-01  4.9920106002766412e-01  4.9900159231723140e-01  4.9881248227869535e-01  4.9883171183038749e-01  4.9914018280394767e-01  4.9980433654255402e-01  5.0086040708571899e-01  5.0190845687622654e-01  5.0247555388237253e-01  5.0240629308616613e-01  5.0192707222386634e-01  5.0133135566480169e-01  5.0080300736264749e-01  5.0040942513892228e-01  5.0014886062281150e-01  4.9999184441606642e-01  4.9990420330551344e-01  4.9985369958236026e-01  4.9980824812526942e-01  4.9971871392436257e-01  4.9951320602384264e-01  4.9902830756739713e-01  4.9807911312769620e-01  4.9624606762418721e-01  4.9316635119753427e-01  4.8919057726370857e-01  4.7953453826780379e-01  4.8683310071788738e-01  4.1507121488131821e-01  6.5234940985229006e-01  -1.5122443005599995e-01  2.5390079970174146e+00  6.1039378432912350e-02  4.0981804277263378e-01  5.0108711133339434e-01  4.5644515901921751e-01  4.7304188649278267e-01  4.7954724819041561e-01  4.8706661091904352e-01  4.9202402855268246e-01  4.9553730174586380e-01  4.9767420019373382e-01  4.9886538521412793e-01  4.9946822751215320e-01  4.9972892708883188e-01  4.9980278847174936e-01  4.9976270484572183e-01  4.9963913443961661e-01  4.9943046758245013e-01  4.9914495761333438e-01  4.9884379451691307e-01  4.9847329843115074e-01  4.9849155614822671e-01  4.9880676956338227e-01  4.9986304250346314e-01  5.0181726125921311e-01  5.0346920735310396e-01  5.0388900704580686e-01  5.0310745491419351e-01  5.0192336240894375e-01  5.0088842298459013e-01  5.0018300503121293e-01  4.9978372006377542e-01  4.9960145488037627e-01  4.9954880344920910e-01  4.9956107806196115e-01  4.9959394096365056e-01  4.9961319025347678e-01  4.9957198672158443e-01  4.9940198715209927e-01  4.9894326340718981e-01  4.9801396072643533e-01  4.9619673113782731e-01  4.9313394106018410e-01  4.8917147703646308e-01  4.7955741757862858e-01  4.8685041987230343e-01  4.1525576281160859e-01  6.5238603744114421e-01  -1.5063262717979584e-01  2.5397801914255669e+00  6.1078658672223618e-02  4.0994012384868678e-01  5.0121222930874765e-01  4.5649577831348442e-01  4.7308096243569370e-01  4.7956462135848060e-01  4.8708267885535267e-01  4.9204025347447622e-01  4.9556061411660129e-01  4.9770799769703467e-01  4.9891335033974560e-01  4.9953383363337578e-01  4.9981563913087773e-01  4.9991318100741694e-01  4.9989690258871500e-01  4.9978986469690506e-01  4.9957954516346703e-01  4.9926595446839678e-01  4.9885790627246873e-01  4.9825679214100299e-01  4.9828044768301838e-01  4.9823103266201074e-01  5.0023373821367056e-01  5.0400461105917416e-01  5.0619977598391563e-01  5.0560098779049667e-01  5.0308145715657182e-01  5.0080034060489065e-01  4.9939860371732042e-01  4.9876179688031580e-01  4.9860886758598438e-01  4.9870419509237923e-01  4.9889504434623777e-01  4.9909725304904434e-01  4.9926859490923375e-01  4.9938483701096398e-01  4.9941016859076998e-01  4.9928556566945181e-01  4.9885813976439891e-01  4.9795110035889861e-01  4.9615050328917620e-01  4.9310347267108884e-01  4.8915329365414378e-01  4.7957214514455976e-01  4.8686220246605888e-01  4.1539552993987500e-01  6.5241095026515539e-01  -1.5017159699498092e-01  2.5403635088643366e+00  6.1105769155281361e-02  4.1001515566417590e-01  5.0129980029730026e-01  4.5652867941069736e-01  4.7310895565013084e-01  4.7957749527007476e-01  4.8709644868446916e-01  4.9205553797006724e-01  4.9558330239740628e-01  4.9774159930950701e-01  4.9896246483136575e-01  4.9960394999005775e-01  4.9991395334568806e-01  5.0004870412157421e-01  5.0008012479305741e-01  5.0002995542374251e-01  4.9988406303794808e-01  4.9962277694066659e-01  4.9918897548800428e-01  4.9849737439255160e-01  4.9858340899591402e-01  4.9741283125043778e-01  5.0184040364994398e-01  5.0826948430047791e-01  5.0992010719330039e-01  5.0637006092735615e-01  5.0051415791935516e-01  4.9742592973336885e-01  4.9631909250996975e-01  4.9636469868921673e-01  4.9688907063497434e-01  4.9752403130728989e-01  4.9810566120672833e-01  4.9857615694326290e-01  4.9892544917455278e-01  4.9915720111187195e-01  4.9925676627085519e-01  4.9917995452254710e-01  4.9878377081403186e-01  4.9789783345037825e-01  4.9611232120159598e-01  4.9307829578317797e-01  4.8913860478352700e-01  4.7958060368922645e-01  4.8687109488521008e-01  4.1549264633287636e-01  6.5242861638754279e-01  -1.4983846535388595e-01  2.5407676618049160e+00  6.1123248254206099e-02  4.1005517710391842e-01  5.0135242917232248e-01  4.5654587777589700e-01  4.7312582274550607e-01  4.7958513844606082e-01  4.8710585859886701e-01  4.9206657569743134e-01  4.9560012614063570e-01  4.9776686887897059e-01  4.9900011357258373e-01  4.9965919726137409e-01  4.9999438717659417e-01  5.0016523890573683e-01  5.0024831971236228e-01  5.0027121179994172e-01  5.0022881440331524e-01  5.0009773302290805e-01  4.9982759931979037e-01  4.9939413898398266e-01  4.9941877806040103e-01  4.9587778800369886e-01  5.0460723698303001e-01  5.1203445935184178e-01  5.1085350090907167e-01  5.0378891848626717e-01  4.9284579185615551e-01  4.9049100037046378e-01  4.9179330166429513e-01  4.9345828895141380e-01  4.9506184463502906e-01  4.9638707652208625e-01  4.9740076865771365e-01  4.9813860933170967e-01  4.9865201354956556e-01  4.9898392471619696e-01  4.9914458364453840e-01  4.9910533359802611e-01  4.9873271019539533e-01  4.9786207229124990e-01  4.9608725807264897e-01  4.9306170990431236e-01  4.8912978059424828e-01  4.7958439924662249e-01  4.8687909477619057e-01  4.1554833316394468e-01  6.5244231781731721e-01  -1.4963292337119205e-01  2.5409990712831338e+00  6.1132854473019312e-02  4.1006733981827431e-01  5.0137140788941892e-01  4.5654848482666693e-01  4.7313132798386465e-01  4.7958689038754077e-01  4.8710923725452027e-01  4.9207063113103422e-01  4.9560656568664863e-01  4.9777646548452453e-01  4.9901431400576068e-01  4.9967994908694247e-01  5.0002464069683195e-01  5.0020943073526491e-01  5.0031316870269760e-01  5.0036699762530157e-01  5.0037159843115087e-01  5.0031061803634957e-01  5.0016333700163462e-01  4.9988317520584363e-01  4.9935804112773824e-01  4.9464853090711536e-01  5.0543560504774143e-01  5.0546934676715771e-01  5.0635786449462972e-01  4.9858245409914320e-01  4.7574003861371406e-01  4.8231994786149995e-01  4.8799709623714371e-01  4.9166530731408381e-01  4.9411949924591403e-01  4.9586194558418994e-01  4.9709895205147098e-01  4.9796181199982714e-01  4.9854679289557763e-01  4.9892001995996726e-01  4.9910465928845721e-01  4.9907949847711397e-01  4.9871537755070305e-01  4.9785006264551696e-01  4.9607915901085375e-01  4.9305614313521812e-01  4.8912848490706090e-01  4.7958464504735465e-01  4.8688741894489340e-01  4.1