<?xml version="1.0"?>
<VTKFile type="UnstructuredGrid"  version="0.1"  >
<UnstructuredGrid>
<Piece  NumberOfPoints="1617" NumberOfCells="3072">
<Points>
<DataArray  type="Float64"  NumberOfComponents="3"  format="ascii">0 0 0  0.03125 0 0  0.0625 0 0  0.09375 0 0  0.125 0 0  0.15625 0 0  0.1875 0 0  0.21875 0 0  0.25 0 0  0.28125 0 0  0.3125 0 0  0.34375 0 0  0.375 0 0  0.40625 0 0  0.4375 0 0  0.46875 0 0  0.5 0 0  0.53125 0 0  0.5625 0 0  0.59375 0 0  0.625 0 0  0.65625 0 0  0.6875 0 0  0.71875 0 0  0.75 0 0  0.78125 0 0  0.8125 0 0  0.84375 0 0  0.875 0 0  0.90625 0 0  0.9375 0 0  0.96875 0 0  1 0 0  1.03125 0 0  1.0625 0 0  1.09375 0 0  1.125 0 0  1.15625 0 0  1.1875 0 0  1.21875 0 0  1.25 0 0  1.28125 0 0  1.3125 0 0  1.34375 0 0  1.375 0 0  1.40625 0 0  1.4375 0 0  1.46875 0 0  1.5 0 0  0 0.03125 0  0.03125 0.03125 0  0.0625 0.03125 0  0.09375 0.03125 0  0.125 0.03125 0  0.15625 0.03125 0  0.1875 0.03125 0  0.21875 0.03125 0  0.25 0.03125 0  0.28125 0.03125 0  0.3125 0.03125 0  0.34375 0.03125 0  0.375 0.03125 0  0.40625 0.03125 0  0.4375 0.03125 0  0.46875 0.03125 0  0.5 0.03125 0  0.53125 0.03125 0  0.5625 0.03125 0  0.59375 0.03125 0  0.625 0.03125 0  0.65625 0.03125 0  0.6875 0.03125 0  0.71875 0.03125 0  0.75 0.03125 0  0.78125 0.03125 0  0.8125 0.03125 0  0.84375 0.03125 0  0.875 0.03125 0  0.90625 0.03125 0  0.9375 0.03125 0  0.96875 0.03125 0  1 0.03125 0  1.03125 0.03125 0  1.0625 0.03125 0  1.09375 0.03125 0  1.125 0.03125 0  1.15625 0.03125 0  1.1875 0.03125 0  1.21875 0.03125 0  1.25 0.03125 0  1.28125 0.03125 0  1.3125 0.03125 0  1.34375 0.03125 0  1.375 0.03125 0  1.40625 0.03125 0  1.4375 0.03125 0  1.46875 0.03125 0  1.5 0.03125 0  0 0.0625 0  0.03125 0.0625 0  0.0625 0.0625 0  0.09375 0.0625 0  0.125 0.0625 0  0.15625 0.0625 0  0.1875 0.0625 0  0.21875 0.0625 0  0.25 0.0625 0  0.28125 0.0625 0  0.3125 0.0625 0  0.34375 0.0625 0  0.375 0.0625 0  0.40625 0.0625 0  0.4375 0.0625 0  0.46875 0.0625 0  0.5 0.0625 0  0.53125 0.0625 0  0.5625 0.0625 0  0.59375 0.0625 0  0.625 0.0625 0  0.65625 0.0625 0  0.6875 0.0625 0  0.71875 0.0625 0  0.75 0.0625 0  0.78125 0.0625 0  0.8125 0.0625 0  0.84375 0.0625 0  0.875 0.0625 0  0.90625 0.0625 0  0.9375 0.0625 0  0.96875 0.0625 0  1 0.0625 0  1.03125 0.0625 0  1.0625 0.0625 0  1.09375 0.0625 0  1.125 0.0625 0  1.15625 0.0625 0  1.1875 0.0625 0  1.21875 0.0625 0  1.25 0.0625 0  1.28125 0.0625 0  1.3125 0.0625 0  1.34375 0.0625 0  1.375 0.0625 0  1.40625 0.0625 0  1.4375 0.0625 0  1.46875 0.0625 0  1.5 0.0625 0  0 0.09375 0  0.03125 0.09375 0  0.0625 0.09375 0  0.09375 0.09375 0  0.125 0.09375 0  0.15625 0.09375 0  0.1875 0.09375 0  0.21875 0.09375 0  0.25 0.09375 0  0.28125 0.09375 0  0.3125 0.09375 0  0.34375 0.09375 0  0.375 0.09375 0  0.40625 0.09375 0  0.4375 0.09375 0  0.46875 0.09375 0  0.5 0.09375 0  0.53125 0.09375 0  0.5625 0.09375 0  0.59375 0.09375 0  0.625 0.09375 0  0.65625 0.09375 0  0.6875 0.09375 0  0.71875 0.09375 0  0.75 0.09375 0  0.78125 0.09375 0  0.8125 0.09375 0  0.84375 0.09375 0  0.875 0.09375 0  0.90625 0.09375 0  0.9375 0.09375 0  0.96875 0.09375 0  1 0.09375 0  1.03125 0.09375 0  1.0625 0.09375 0  1.09375 0.09375 0  1.125 0.09375 0  1.15625 0.09375 0  1.1875 0.09375 0  1.21875 0.09375 0  1.25 0.09375 0  1.28125 0.09375 0  1.3125 0.09375 0  1.34375 0.09375 0  1.375 0.09375 0  1.40625 0.09375 0  1.4375 0.09375 0  1.46875 0.09375 0  1.5 0.09375 0  0 0.125 0  0.03125 0.125 0  0.0625 0.125 0  0.09375 0.125 0  0.125 0.125 0  0.15625 0.125 0  0.1875 0.125 0  0.21875 0.125 0  0.25 0.125 0  0.28125 0.125 0  0.3125 0.125 0  0.34375 0.125 0  0.375 0.125 0  0.40625 0.125 0  0.4375 0.125 0  0.46875 0.125 0  0.5 0.125 0  0.53125 0.125 0  0.5625 0.125 0  0.59375 0.125 0  0.625 0.125 0  0.65625 0.125 0  0.6875 0.125 0  0.71875 0.125 0  0.75 0.125 0  0.78125 0.125 0  0.8125 0.125 0  0.84375 0.125 0  0.875 0.125 0  0.90625 0.125 0  0.9375 0.125 0  0.96875 0.125 0  1 0.125 0  1.03125 0.125 0  1.0625 0.125 0  1.09375 0.125 0  1.125 0.125 0  1.15625 0.125 0  1.1875 0.125 0  1.21875 0.125 0  1.25 0.125 0  1.28125 0.125 0  1.3125 0.125 0  1.34375 0.125 0  1.375 0.125 0  1.40625 0.125 0  1.4375 0.125 0  1.46875 0.125 0  1.5 0.125 0  0 0.15625 0  0.03125 0.15625 0  0.0625 0.15625 0  0.09375 0.15625 0  0.125 0.15625 0  0.15625 0.15625 0  0.1875 0.15625 0  0.21875 0.15625 0  0.25 0.15625 0  0.28125 0.15625 0  0.3125 0.15625 0  0.34375 0.15625 0  0.375 0.15625 0  0.40625 0.15625 0  0.4375 0.15625 0  0.46875 0.15625 0  0.5 0.15625 0  0.53125 0.15625 0  0.5625 0.15625 0  0.59375 0.15625 0  0.625 0.15625 0  0.65625 0.15625 0  0.6875 0.15625 0  0.71875 0.15625 0  0.75 0.15625 0  0.78125 0.15625 0  0.8125 0.15625 0  0.84375 0.15625 0  0.875 0.15625 0  0.90625 0.15625 0  0.9375 0.15625 0  0.96875 0.15625 0  1 0.15625 0  1.03125 0.15625 0  1.0625 0.15625 0  1.09375 0.15625 0  1.125 0.15625 0  1.15625 0.15625 0  1.1875 0.15625 0  1.21875 0.15625 0  1.25 0.15625 0  1.28125 0.15625 0  1.3125 0.15625 0  1.34375 0.15625 0  1.375 0.15625 0  1.40625 0.15625 0  1.4375 0.15625 0  1.46875 0.15625 0  1.5 0.15625 0  0 0.1875 0  0.03125 0.1875 0  0.0625 0.1875 0  0.09375 0.1875 0  0.125 0.1875 0  0.15625 0.1875 0  0.1875 0.1875 0  0.21875 0.1875 0  0.25 0.1875 0  0.28125 0.1875 0  0.3125 0.1875 0  0.34375 0.1875 0  0.375 0.1875 0  0.40625 0.1875 0  0.4375 0.1875 0  0.46875 0.1875 0  0.5 0.1875 0  0.53125 0.1875 0  0.5625 0.1875 0  0.59375 0.1875 0  0.625 0.1875 0  0.65625 0.1875 0  0.6875 0.1875 0  0.71875 0.1875 0  0.75 0.1875 0  0.78125 0.1875 0  0.8125 0.1875 0  0.84375 0.1875 0  0.875 0.1875 0  0.90625 0.1875 0  0.9375 0.1875 0  0.96875 0.1875 0  1 0.1875 0  1.03125 0.1875 0  1.0625 0.1875 0  1.09375 0.1875 0  1.125 0.1875 0  1.15625 0.1875 0  1.1875 0.1875 0  1.21875 0.1875 0  1.25 0.1875 0  1.28125 0.1875 0  1.3125 0.1875 0  1.34375 0.1875 0  1.375 0.1875 0  1.40625 0.1875 0  1.4375 0.1875 0  1.46875 0.1875 0  1.5 0.1875 0  0 0.21875 0  0.03125 0.21875 0  0.0625 0.21875 0  0.09375 0.21875 0  0.125 0.21875 0  0.15625 0.21875 0  0.1875 0.21875 0  0.21875 0.21875 0  0.25 0.21875 0  0.28125 0.21875 0  0.3125 0.21875 0  0.34375 0.21875 0  0.375 0.21875 0  0.40625 0.21875 0  0.4375 0.21875 0  0.46875 0.21875 0  0.5 0.21875 0  0.53125 0.21875 0  0.5625 0.21875 0  0.59375 0.21875 0  0.625 0.21875 0  0.65625 0.21875 0  0.6875 0.21875 0  0.71875 0.21875 0  0.75 0.21875 0  0.78125 0.21875 0  0.8125 0.21875 0  0.84375 0.21875 0  0.875 0.21875 0  0.90625 0.21875 0  0.9375 0.21875 0  0.96875 0.21875 0  1 0.21875 0  1.03125 0.21875 0  1.0625 0.21875 0  1.09375 0.21875 0  1.125 0.21875 0  1.15625 0.21875 0  1.1875 0.21875 0  1.21875 0.21875 0  1.25 0.21875 0  1.28125 0.21875 0  1.3125 0.21875 0  1.34375 0.21875 0  1.375 0.21875 0  1.40625 0.21875 0  1.4375 0.21875 0  1.46875 0.21875 0  1.5 0.21875 0  0 0.25 0  0.03125 0.25 0  0.0625 0.25 0  0.09375 0.25 0  0.125 0.25 0  0.15625 0.25 0  0.1875 0.25 0  0.21875 0.25 0  0.25 0.25 0  0.28125 0.25 0  0.3125 0.25 0  0.34375 0.25 0  0.375 0.25 0  0.40625 0.25 0  0.4375 0.25 0  0.46875 0.25 0  0.5 0.25 0  0.53125 0.25 0  0.5625 0.25 0  0.59375 0.25 0  0.625 0.25 0  0.65625 0.25 0  0.6875 0.25 0  0.71875 0.25 0  0.75 0.25 0  0.78125 0.25 0  0.8125 0.25 0  0.84375 0.25 0  0.875 0.25 0  0.90625 0.25 0  0.9375 0.25 0  0.96875 0.25 0  1 0.25 0  1.03125 0.25 0  1.0625 0.25 0  1.09375 0.25 0  1.125 0.25 0  1.15625 0.25 0  1.1875 0.25 0  1.21875 0.25 0  1.25 0.25 0  1.28125 0.25 0  1.3125 0.25 0  1.34375 0.25 0  1.375 0.25 0  1.40625 0.25 0  1.4375 0.25 0  1.46875 0.25 0  1.5 0.25 0  0 0.28125 0  0.03125 0.28125 0  0.0625 0.28125 0  0.09375 0.28125 0  0.125 0.28125 0  0.15625 0.28125 0  0.1875 0.28125 0  0.21875 0.28125 0  0.25 0.28125 0  0.28125 0.28125 0  0.3125 0.28125 0  0.34375 0.28125 0  0.375 0.28125 0  0.40625 0.28125 0  0.4375 0.28125 0  0.46875 0.28125 0  0.5 0.28125 0  0.53125 0.28125 0  0.5625 0.28125 0  0.59375 0.28125 0  0.625 0.28125 0  0.65625 0.28125 0  0.6875 0.28125 0  0.71875 0.28125 0  0.75 0.28125 0  0.78125 0.28125 0  0.8125 0.28125 0  0.84375 0.28125 0  0.875 0.28125 0  0.90625 0.28125 0  0.9375 0.28125 0  0.96875 0.28125 0  1 0.28125 0  1.03125 0.28125 0  1.0625 0.28125 0  1.09375 0.28125 0  1.125 0.28125 0  1.15625 0.28125 0  1.1875 0.28125 0  1.21875 0.28125 0  1.25 0.28125 0  1.28125 0.28125 0  1.3125 0.28125 0  1.34375 0.28125 0  1.375 0.28125 0  1.40625 0.28125 0  1.4375 0.28125 0  1.46875 0.28125 0  1.5 0.28125 0  0 0.3125 0  0.03125 0.3125 0  0.0625 0.3125 0  0.09375 0.3125 0  0.125 0.3125 0  0.15625 0.3125 0  0.1875 0.3125 0  0.21875 0.3125 0  0.25 0.3125 0  0.28125 0.3125 0  0.3125 0.3125 0  0.34375 0.3125 0  0.375 0.3125 0  0.40625 0.3125 0  0.4375 0.3125 0  0.46875 0.3125 0  0.5 0.3125 0  0.53125 0.3125 0  0.5625 0.3125 0  0.59375 0.3125 0  0.625 0.3125 0  0.65625 0.3125 0  0.6875 0.3125 0  0.71875 0.3125 0  0.75 0.3125 0  0.78125 0.3125 0  0.8125 0.3125 0  0.84375 0.3125 0  0.875 0.3125 0  0.90625 0.3125 0  0.9375 0.3125 0  0.96875 0.3125 0  1 0.3125 0  1.03125 0.3125 0  1.0625 0.3125 0  1.09375 0.3125 0  1.125 0.3125 0  1.15625 0.3125 0  1.1875 0.3125 0  1.21875 0.3125 0  1.25 0.3125 0  1.28125 0.3125 0  1.3125 0.3125 0  1.34375 0.3125 0  1.375 0.3125 0  1.40625 0.3125 0  1.4375 0.3125 0  1.46875 0.3125 0  1.5 0.3125 0  0 0.34375 0  0.03125 0.34375 0  0.0625 0.34375 0  0.09375 0.34375 0  0.125 0.34375 0  0.15625 0.34375 0  0.1875 0.34375 0  0.21875 0.34375 0  0.25 0.34375 0  0.28125 0.34375 0  0.3125 0.34375 0  0.34375 0.34375 0  0.375 0.34375 0  0.40625 0.34375 0  0.4375 0.34375 0  0.46875 0.34375 0  0.5 0.34375 0  0.53125 0.34375 0  0.5625 0.34375 0  0.59375 0.34375 0  0.625 0.34375 0  0.65625 0.34375 0  0.6875 0.34375 0  0.71875 0.34375 0  0.75 0.34375 0  0.78125 0.34375 0  0.8125 0.34375 0  0.84375 0.34375 0  0.875 0.34375 0  0.90625 0.34375 0  0.9375 0.34375 0  0.96875 0.34375 0  1 0.34375 0  1.03125 0.34375 0  1.0625 0.34375 0  1.09375 0.34375 0  1.125 0.34375 0  1.15625 0.34375 0  1.1875 0.34375 0  1.21875 0.34375 0  1.25 0.34375 0  1.28125 0.34375 0  1.3125 0.34375 0  1.34375 0.34375 0  1.375 0.34375 0  1
[...]
<PointData  Scalars="f_81"> 
<DataArray  type="Float64"  Name="f_81"  format="ascii">1.5792060949914557e+00  3.0019345452637264e-01  4.5690208582369451e-01  4.7563180042540804e-01  4.9138579833621282e-01  4.9891248318915438e-01  5.0137348567288897e-01  5.0186614540892149e-01  5.0175865507054584e-01  5.0153497531587565e-01  5.0135367402529629e-01  5.0125922184791183e-01  5.0126173688784326e-01  5.0136176122547249e-01  5.0155762889082156e-01  5.0184741163926294e-01  5.0222936890102321e-01  5.0270187873571914e-01  5.0326314623732959e-01  5.0391079752684032e-01  5.0464144309980585e-01  5.0545030205686070e-01  5.0633098324502646e-01  5.0727550232279184e-01  5.0827456911390678e-01  5.0931811468608212e-01  5.1039596177249003e-01  5.1149850036787103e-01  5.1261722940399579e-01  5.1374506632943928e-01  5.1487639506096183e-01  5.1600687467151118e-01  5.1713312231471509e-01  5.1825222520892344e-01  5.1936154096420151e-01  5.2045765582728198e-01  5.2153747878786416e-01  5.2259394105671930e-01  5.2361969956428944e-01  5.2460453136672935e-01  5.2544424282847790e-01  5.2637462413005331e-01  5.2567542256351452e-01  5.2806691340389100e-01  5.0763067011222607e-01  5.2476045699897345e-01  4.5239095714933153e-01  4.0460376230114836e-01  6.5619508699795076e-02  2.4663437076271109e+00  7.8826882331040182e-02  4.5656909924912470e-01  4.8625166698705591e-01  4.9424352408638661e-01  5.0276240811048112e-01  5.0549386168881461e-01  5.0625446964347043e-01  5.0632403768648770e-01  5.0620463140233840e-01  5.0603598890094059e-01  5.0585831614029031e-01  5.0568238525212872e-01  5.0551222114969718e-01  5.0535034433552672e-01  5.0519901475440365e-01  5.0506045640856556e-01  5.0493680982133948e-01  5.0482996727454987e-01  5.0474134293024875e-01  5.0467162801487764e-01  5.0462059221430156e-01  5.0458699693036491e-01  5.0456867359593682e-01  5.0456278747334926e-01  5.0456625979682301e-01  5.0457627289030349e-01  5.0459075243726037e-01  5.0460872268075940e-01  5.0463046497333108e-01  5.0465746658387212e-01  5.0469219341508376e-01  5.0473776912423907e-01  5.0479759107645505e-01  5.0487503905560771e-01  5.0497299726946476e-01  5.0509368591526627e-01  5.0523763331317295e-01  5.0539992332556605e-01  5.0557594859713095e-01  5.0567807589304392e-01  5.0576188517982446e-01  5.0471747850543425e-01  5.0375409612280475e-01  4.8998056815609631e-01  4.8383192927584945e-01  4.5894331104796776e-01  3.6000922780950567e-01  9.3701482352975835e-03  2.4372976573114973e+00  -2.5729174861729851e-02  4.7249846814900676e-01  4.8442525099609079e-01  4.8243515116128594e-01  4.9421048149452323e-01  4.9725941679224545e-01  4.9830080087472856e-01  4.9867994529475518e-01  4.9891375809300176e-01  4.9910791577978619e-01  4.9928969324519340e-01  4.9946232805738316e-01  4.9962563589871573e-01  4.9977906793714671e-01  4.9992226564541392e-01  5.0005498438526319e-01  5.0017702139273423e-01  5.0028814153572709e-01  5.0038800777950232e-01  5.0047611911976009e-01  5.0055176507336019e-01  5.0061400594724970e-01  5.0066168801024424e-01  5.0069350009616098e-01  5.0070807295163977e-01  5.0070411165749507e-01  5.0068053668786583e-01  5.0063659856331910e-01  5.0057193588651316e-01  5.0048656667543723e-01  5.0038082265769179e-01  5.0025526844424983e-01  5.0011057536723635e-01  4.9994754989376866e-01  4.9976673252462339e-01  4.9956912535671061e-01  4.9935357511968248e-01  4.9911940027841084e-01  4.9885624586695643e-01  4.9850519912198560e-01  4.9807913216685046e-01  4.9657053285849428e-01  4.9519545755969019e-01  4.8058042022718150e-01  4.8126002053895900e-01  4.4429954268800509e-01  3.6069782381088755e-01  5.9372578751511942e-03  2.4498261312396545e+00  -1.6686049177324691e-02  4.9173005859092356e-01  4.8589189946290867e-01  4.8231540693050878e-01  4.9689936148857261e-01  4.9879181404713463e-01  4.9947316207984083e-01  4.9966490561244042e-01  4.9973923224995931e-01  4.9978251477706626e-01  4.9981740877708580e-01  4.9984839454485896e-01  4.9987652466371735e-01  4.9990220268581276e-01  4.9992576070744116e-01  4.9994753691235444e-01  4.9996788816068810e-01  4.9998715403091243e-01  5.0000560488644930e-01  5.0002337880819026e-01  5.0004041512867303e-01  5.0005639451883466e-01  5.0007070455356750e-01  5.0008245499523307e-01  5.0009056642471816e-01  5.0009393389096779e-01  5.0009162762576698e-01  5.0008306030018124e-01  5.0006805722491887e-01  5.0004681400459849e-01  5.0001977047206014e-01  4.9998747648488384e-01  4.9995043321919919e-01  4.9990912657066211e-01  4.9986367158973333e-01  4.9981454198880149e-01  4.9976041604009414e-01  4.9969989643480534e-01  4.9962629340083264e-01  4.9947659359144037e-01  4.9930069343574690e-01  4.9804612969184653e-01  4.9721089396375595e-01  4.8314318534988504e-01  4.8553934243122387e-01  4.5123164089244566e-01  3.7450899367573404e-01  1.2832956049606457e-02  2.4534826309972284e+00  -1.6189948576290653e-02  4.9470194109186522e-01  4.8478720329790587e-01  4.8329472228185449e-01  4.9834199406635343e-01  4.9913865605459784e-01  4.9990181470689476e-01  5.0009961872636877e-01  5.0013200579767958e-01  5.0013180051371897e-01  5.0011950491438106e-01  5.0010487861547781e-01  5.0008980516434987e-01  5.0007500760915680e-01  5.0006087316610692e-01  5.0004785581538991e-01  5.0003651798279092e-01  5.0002748504720340e-01  5.0002136511858930e-01  5.0001862848952616e-01  5.0001945966251682e-01  5.0002360176462279e-01  5.0003023815318459e-01  5.0003797458660093e-01  5.0004499102172340e-01  5.0004937711638953e-01  5.0004956068796069e-01  5.0004465225618133e-01  5.0003456029132287e-01  5.0001986314425784e-01  5.0000153463349173e-01  4.9998066934990049e-01  4.9995823803193312e-01  4.9993507875889348e-01  4.9991155437156909e-01  4.9988828423911669e-01  4.9986399716435193e-01  4.9983742749702137e-01  4.9980152161558578e-01  4.9969515849869656e-01  4.9956648605704262e-01  4.9838178023764179e-01  4.9764330416578867e-01  4.8378137410972877e-01  4.8666870443744548e-01  4.5244562683100986e-01  3.7806334949818893e-01  1.1171880781515577e-02  2.4565647431915103e+00  -1.5205349725769441e-02  4.9535338799314449e-01  4.8476670581661546e-01  4.8392307554678171e-01  4.9837469643497195e-01  4.9889630296798571e-01  4.9992299085796205e-01  5.0011785061220904e-01  5.0014397322850657e-01  5.0014516875751414e-01  5.0012849422432937e-01  5.0010994481946636e-01  5.0009067958325071e-01  5.0007161855155136e-01  5.0005323966976045e-01  5.0003625106718430e-01  5.0002157399943925e-01  5.0001029539049824e-01  5.0000358121824384e-01  5.0000245507167762e-01  5.0000752551619987e-01  5.0001865751142205e-01  5.0003468783943639e-01  5.0005333037216970e-01  5.0007144715764573e-01  5.0008573930370093e-01  5.0009363802739548e-01  5.0009395152218761e-01  5.0008696283127108e-01  5.0007403827251462e-01  5.0005703411285962e-01  5.0003779408461324e-01  5.0001780746209767e-01  4.9999820695641589e-01  4.9997946735619786e-01  4.9996221695344756e-01  4.9994505374907289e-01  4.9992663574606933e-01  4.9989952307858815e-01  4.9980271327867914e-01  4.9968532629220719e-01  4.9851008711981348e-01  4.9780547700124583e-01  4.8394894868375166e-01  4.8706374550142628e-01  4.5285055894785609e-01  3.8018288968887720e-01  1.0742747846746007e-02  2.4589739302025020e+00  -1.5055607633426622e-02  4.9529897278591839e-01  4.8482843534731657e-01  4.8397378761354848e-01  4.9817720744901994e-01  4.9883142609458830e-01  4.9995752535753879e-01  5.0010621167382874e-01  5.0014064439980099e-01  5.0014655998164270e-01  5.0012842583302086e-01  5.0010874482607270e-01  5.0008691529204896e-01  5.0006438597343883e-01  5.0004175875222256e-01  5.0002009298880568e-01  5.0000074392573712e-01  4.9998550077823450e-01  4.9997649441694697e-01  4.9997575890967511e-01  4.9998481461016014e-01  5.0000393734044934e-01  5.0003149703025396e-01  5.0006363368837425e-01  5.0009472890251316e-01  5.0011890268085435e-01  5.0013195223767948e-01  5.0013253428471149e-01  5.0012200460848100e-01  5.0010333281261465e-01  5.0007987432523837e-01  5.0005453564889046e-01  5.0002938361947058e-01  5.0000574576725554e-01  4.9998404982162092e-01  4.9996474931514340e-01  4.9994619421252301e-01  4.9992682415272660e-01  4.9989891015205878e-01  4.9980162776829351e-01  4.9968475254661138e-01  4.9850965424489335e-01  4.9781708848850692e-01  4.8393990509567869e-01  4.8717779811299011e-01  4.5289032732415996e-01  3.8123328080773095e-01  1.0594773965797768e-02  2.4610310023037294e+00  -1.5173454852622000e-02  4.9516444840806495e-01  4.8482609155844758e-01  4.8388078386290501e-01  4.9808021090162796e-01  4.9882115450843884e-01  4.9993157668290472e-01  5.0006536453980299e-01  5.0011824294676865e-01  5.0012631688658593e-01  5.0010889305370643e-01  5.0008970242808648e-01  5.0006632537288009e-01  5.0004084825592732e-01  5.0001380246168603e-01  4.9998654575872603e-01  4.9996076983392002e-01  4.9993945116492439e-01  4.9992628504389869e-01  4.9992512782423232e-01  4.9993953692682008e-01  4.9997090257550780e-01  5.0001710874391625e-01  5.0007144345923282e-01  5.0012333620464300e-01  5.0016191047745595e-01  5.0018045041567549e-01  5.0017834576163933e-01  5.0015975773226362e-01  5.0013081995507092e-01  5.0009728595269587e-01  5.0006338099020742e-01  5.0003160357320076e-01  5.0000317043652887e-01  4.9997814832048837e-01  4.9995657372332886e-01  4.9993638352942887e-01  4.9991576162805162e-01  4.9988668615193915e-01  4.9978877469323962e-01  4.9967244520740611e-01  4.9849827381141620e-01  4.9781748784529367e-01  4.8391797321548596e-01  4.8724750625236835e-01  4.5290198205115528e-01  3.8191858525977423e-01  1.0466125815116970e-02  2.4628050175591620e+00  -1.5382279833078641e-02  4.9508952820431973e-01  4.8485561170223979e-01  4.8384976812560543e-01  4.9807615925998877e-01  4.9883298111652635e-01  4.9992570756103971e-01  5.0006643330184852e-01  5.0012567450410694e-01  5.0013075674606600e-01  5.0011299698793155e-01  5.0009197264184380e-01  5.0006476567275104e-01  5.0003359407083026e-01  4.9999863308399473e-01  4.9996110112106917e-01  4.9992283590932080e-01  4.9988894413899798e-01  4.9986497902788141e-01  4.9985840737600828e-01  4.9987733264479245e-01  4.9992577513125902e-01  5.0000189261787431e-01  5.0009344212104823e-01  5.0017889694655715e-01  5.0023718057542854e-01  5.0025841715864838e-01  5.0024588985507701e-01  5.0021050926298649e-01  5.0016421508722231e-01  5.0011611789069055e-01  5.0007159096630105e-01  5.0003293464115262e-01  5.0000059839320787e-01  4.9997378715306234e-01  4.9995180227705144e-01  4.9993200998584253e-01  4.9991227530793136e-01  4.9988433606730559e-01  4.9978825110873260e-01  4.9967513176744793e-01  4.9850502210202885e-01  4.9783793224193079e-01  4.8392049277684412e-01  4.8732535384272463e-01  4.5292953839465955e-01  3.8246936079107019e-01  1.0427169243871888e-02  2.4643279370738580e+00  -1.5625028738147129e-02  4.9504768828637818e-01  4.8487855394238039e-01  4.8382435430942006e-01  4.9807044558405433e-01  4.9883115021568236e-01  4.9992168793335240e-01  5.0006818178453583e-01  5.0012735897035632e-01  5.0013246946775158e-01  5.0011607323823404e-01  5.0009408505825359e-01  5.0006400416102581e-01  5.0002725689857885e-01  4.9998323918566262e-01  4.9993185121925748e-01  4.9987521518530986e-01  4.9982103013151191e-01  4.9977548556997958e-01  4.9975491374790387e-01  4.9977609420663044e-01  4.9984988683146175e-01  4.9997960244382911e-01  5.0013994640407122e-01  5.0028222364161812e-01  5.0036454464075031e-01  5.0037684854507070e-01  5.0033608846420163e-01  5.0026798309355858e-01  5.0019368037872247e-01  5.0012556792600615e-01  5.0006865080197394e-01  5.0002342102192121e-01  4.9998838351692476e-01  4.9996118618324514e-01  4.9994005833353722e-01  4.9992168025377520e-01  4.9990359682334884e-01  4.9987735881127920e-01  4.9978349817606632e-01  4.9967373599506737e-01  4.9850785558048238e-01  4.9785325759256766e-01  4.8392007147537514e-01  4.8738626987853151e-01  4.5294569484659142e-01  3.8290473420731702e-01  1.0391677306721896e-02  2.4656191126282909e+00  -1.5872866923418362e-02  4.9502758628003679e-01  4.8489681998098405e-01  4.8380605603351035e-01  4.9806960535725253e-01  4.9883468498781641e-01  4.9992584971064657e-01  5.0007400431527138e-01  5.0013379432832461e-01  5.0014140921010797e-01  5.0012696339386586e-01  5.0010531195695074e-01  5.0007379157561616e-01  5.0003231489823963e-01  4.9997847850223021e-01  4.9990905668304131e-01  4.9982670653147360e-01  4.9973789480979924e-01  4.9964746960438394e-01  4.9959388165158519e-01  4.9960455889521938e-01  4.9971611045914666e-01  4.9995411751735785e-01  5.0025106623291860e-01  5.0048713005685130e-01  5.0058312851006348e-01  5.0054973929428781e-01  5.0044364590090429e-01  5.0031804697051174e-01  5.0020407314548332e-01  5.0011329538193383e-01  5.0004598220017027e-01  4.9999784435283512e-01  4.9996386713854069e-01  4.9993949814846350e-01  4.9992174715125803e-01  4.9990667944462341e-01  4.9989164893447019e-01  4.9986815967141274e-01  4.9977725862418193e-01  4.9967125476045265e-01  4.9850987053541906e-01  4.9786674789997287e-01  4.8392051052066554e-01  4.8743762808090652e-01  4.5295785477955275e-01  3.8326515167070052e-01  1.0366834454527678e-02  2.4666922685832615e+00  -1.6109718826471921e-02  4.9502138572960347e-01  4.8491144606016151e-01  4.8379344725129747e-01  4.9807217516387908e-01  4.9884111363123868e-01  4.9993312315163346e-01  5.0008289177806275e-01  5.0014535554681028e-01  5.0015679347350450e-01  5.0014592950507208e-01  5.0012751752189133e-01  5.0009795455140260e-01  5.0005525231955683e-01  4.9999350588144392e-01  4.9990463245549777e-01  4.9978913962526800e-01  4.9963938560445165e-01  4.9946248445786889e-01  4.9933614732065440e-01  4.9929222415873165e-01  4.9947648940039380e-01  4.9996464566732179e-01  5.0053775650158949e-01  5.0090214735709093e-01  5.0093942435540628e-01  5.0076550409357312e-01  5.0053018578171649e-01  5.0032061435169362e-01  5.0016456818704624e-01  5.0005918420895223e-01  4.9999193956255994e-01  4.9995018644620715e-01  4.9992439101938135e-01  4.9990791296060416e-01  4.9989699478702637e-01  4.9988755251974576e-01  4.9987711003531932e-01  4.9985739001236668e-01  4.9977005299724253e-01  4.9966801966443553e-01  4.9851112183883484e-01  4.9787825491121268e-01  4.8392154997272191e-01  4.8748074334272667e-01  4.5296708608078007e-01  3.8356533191534281e-01  1.0348451978811306e-02  2.4675580331631344e+00  -1.6324206601271735e-02  4.9502391829738857e-01  4.8492261563907191e-01  4.8378451429701752e-01  4.9807614562535518e-01  4.9884849766868400e-01  4.9994208950313429e-01  5.0009436142172392e-01  5.0016077937876857e-01  5.0017746203950553e-01  5.0017290402751480e-01  5.0016187690345537e-01  5.0013999652888730e-01  5.0010343399935664e-01  5.0004192687819327e-01  4.9994123648828043e-01  4.9978952475128130e-01  4.9954491866151224e-01  4.9922766951287256e-01  4.9894158747248074e-01  4.9872984705344858e-01  4.9911092538659280e-01  5.0018134425627392e-01  5.0126267515949474e-01  5.0169205526085014e-01  5.0140555366308381e-01  5.0089409813860675e-01  5.0046352312868181e-01  5.0018210398959417e-01  5.0002052593356194e-01  4.9993554994387995e-01  4.9989425565763645e-01  4.9987604978853833e-01  4.9986917534846920e-01  4.9986709757229292e-01  4.9986688680472902e-01  4.9986535402115495e-01  4.9986082553137789e-01  4.9984562927317039e-01  4.9976217564966730e-01  4.9966405717901291e-01  4.9851133488648902e-01  4.9788725113292609e-01  4.8392251662486269e-01  4.8751569741886841e-01  4.5297396351166141e-01  3.8381084929457521e-01  1.0333446173110503e-02  2.4682247056456017e+00  -1.6507569552093176e-02  4.9503155664768750e-01  4.8493078640760678e-01  4.8377844325246844e-01  4.9808088585480970e-01  4.9885614881864654e-01  4.9995181422583529e-01  5.0010705456668880e-01  5.0017817925335628e-01  5.0020149847359474e-01  5.0020593695679483e-01  5.0020687847616607e-01  5.0020045413524550e-01  5.0018268974946956e-01  5.0014129760769654e-01  5.0005534738956992e-01  4.9988652123576505e-01  4.9954296944546400e-01  4.9904590891688888e-01  4.9842218914583802e-01  4.9782598159031249e-01  4.9874975847055575e-01  5.0105398187317751e-01  5.0289814956908330e-01  5.0294355233818611e-01  5.0162958641150512e-01  5.0051132590259639e-01  4.9992598803617655e-01  4.9972592354512185e-01  4.9969274113409445e-01  4.9971394140401110e-01  4.9974661086837935e-01  4.9977711559512711e-01  4.9980200693442139e-01  4.9982080197325141e-01  4.9983451893817782e-01  4.9984246075057898e-01  4.9984455407217160e-01  4.9983414604547083e-01  4.9975450888754419e-01  4.9965995443453093e-01  4.9851082405236741e-01  4.9789382154482575e-01  4.8392340220371771e-01  4.8754283538766990e-01  4.5297959376852848e-01  3.8400358157480274e-01  1.0320796139310365e-02  2.4686986600415470e+00  -1.6652886968113647e-02  4.9504158055992870e-01  4.8493633834911287e-01  4.8377458339341550e-01  4.9808568157541139e-01  4.9886301360602037e-01  4.9996071048138696e-01  5.0011879363647438e-01  5.0019464220060594e-01  5.0022500205100195e-01  5.0023977249957852e-01  5.0025599435392887e-01  5.0027245755847272e-01  5.0028898327363680e-01  5.0029781190570044e-01  5.0027781712652175e-01  5.0017135268335566e-01  4.9985279585755993e-01  4.9928606129170683e-01  4.9821219191017374e-01  4.9697401303922567e-01  4.9889953777840707e-01  5.0325768504704760e-01  5.0596310454359672e-01  5.0438598562384807e-01  5.0045832653380584e-01  4.9869980925184715e-01  4.9846791442901839e-01  4.9875479772169051e-01  4.9912093753014469e-01  4.9938995609436160e-01  4.9956077849764013e-01  4.9966641754961555e-01  4.9973316168908499e-01  4.9977629969646259e-01  4.9980483975580930e-01  4.9982219623899743e-01  4.9983051889929592e-01  4.9982442036285052e-01  4.9974801855917939e-01  4.9965631608595434e-01  4.9850989925930150e-01  4.9789801700464331e-01  4.8392416796533078e-01  4.8756220316306814e-01  4.5298481231193827e-01  3.8414306096429540e-01  1.0309608541676056e-02  2.4689845088728934e+00  -1.6755046631349763e-02  4.9505194530517971e-01  4.8493953388499456e-01  4.8377240758827167e-01  4.9808988542388405e-01  4.9886808683110978e-01  4.9996720812171225e-01  5.0012727882984964e-01  5.0020671989631549e-01  5.0024269576523106e-01  5.0026624512907891e-01  5.0029653408845010e-01  5.0033624543943722e-01  5.0039200748893620e-01  5.0046718696785697e-01  5.0055574037655992e-01  5.0061987401672059e-01  5.0056253533576489e-01  5.0027841836945974e-01  4.9916468218041082e-01  4.9742837915438598e-01  5.0053817424164671e-01  5.0666379097235525e-01  5.0925937730285586e-01  5.0554208159306946e-01  4.9729025860006565e-01  4.9437851147722700e-01  4.9585563788940046e-01  4.9736269695705304e-01  4.9841353698445434e-01  4.9904247233863352e-01  4.9938633546611044e-01  4.9957340044128734e-01  4.9967981887055568e-01  4.9974368186477186e-01  4.9978388893048520e-01  4.9980825995493888e-01  4.9982103532774330e-01  4.9981792352517473e-01  4.9974364112204422e-01  4.9965372381994605e-01  4.9850887816206918e-01  4.9789991917229609e-01  4.8392483261820091e-01  4.8757379961648090e-01  4.5299026743673160e-01  3.8422814392604698e-01  1.0299416690770630e-02  2.4690851552676949e+00  -1.6810962098116257e-02  4.9506127994739602e-01  4.8494053260168679e-01  4.8377155548096168e-01  4.9809303491102075e-01  4.9887062818974953e-01  4.9997009322402991e-01  5.0013062609646608e-01  5.0021138610279792e-01  5.0024956923077191e-01  5.0027673799574013e-01  5.0031305108101476e-01  5.0036305327184993e-01  5.0043669736921148e-01  5.0054312371567200e-01  5.0068659628986889e-01  5.0084865463249950e-01  5.0095888346535900e-01  5.0086881049857102e-01  5.0000608968154214e-01  4.9830115635755801e-01  5.0192393204386376e-01  5.0899511982087631e-01  5.1033658931312975e-01  5.0597508660280943e-01  4.9499093055609222e-01  4.9084890190310310e-01  4.9352585149093303e-01  4.9639449239004385e-01  4.9801028424270877e-01  4.9887687745411186e-01  4.9931508617723075e-01  4.9953947887212441e-01  4.9966150223575018e-01  4.9973273874598861e-01  4.9977690537471098e-01  4.9980362246519200e-01  4.9981786688310909e-01  4.9981573605876739e-01  4.9974204921392296e-01  4.9965258538892232e-01  4.9850798408890823e-01  4.9789957820182307e-01  4.8392541568635861e-01  4.87