<?xml version="1.0"?>
<VTKFile type="UnstructuredGrid"  version="0.1"  >
<UnstructuredGrid>
<Piece  NumberOfPoints="1617" NumberOfCells="3072">
<Points>
<DataArray  type="Float64"  NumberOfComponents="3"  format="ascii">0 0 0  0.03125 0 0  0.0625 0 0  0.09375 0 0  0.125 0 0  0.15625 0 0  0.1875 0 0  0.21875 0 0  0.25 0 0  0.28125 0 0  0.3125 0 0  0.34375 0 0  0.375 0 0  0.40625 0 0  0.4375 0 0  0.46875 0 0  0.5 0 0  0.53125 0 0  0.5625 0 0  0.59375 0 0  0.625 0 0  0.65625 0 0  0.6875 0 0  0.71875 0 0  0.75 0 0  0.78125 0 0  0.8125 0 0  0.84375 0 0  0.875 0 0  0.90625 0 0  0.9375 0 0  0.96875 0 0  1 0 0  1.03125 0 0  1.0625 0 0  1.09375 0 0  1.125 0 0  1.15625 0 0  1.1875 0 0  1.21875 0 0  1.25 0 0  1.28125 0 0  1.3125 0 0  1.34375 0 0  1.375 0 0  1.40625 0 0  1.4375 0 0  1.46875 0 0  1.5 0 0  0 0.03125 0  0.03125 0.03125 0  0.0625 0.03125 0  0.09375 0.03125 0  0.125 0.03125 0  0.15625 0.03125 0  0.1875 0.03125 0  0.21875 0.03125 0  0.25 0.03125 0  0.28125 0.03125 0  0.3125 0.03125 0  0.34375 0.03125 0  0.375 0.03125 0  0.40625 0.03125 0  0.4375 0.03125 0  0.46875 0.03125 0  0.5 0.03125 0  0.53125 0.03125 0  0.5625 0.03125 0  0.59375 0.03125 0  0.625 0.03125 0  0.65625 0.03125 0  0.6875 0.03125 0  0.71875 0.03125 0  0.75 0.03125 0  0.78125 0.03125 0  0.8125 0.03125 0  0.84375 0.03125 0  0.875 0.03125 0  0.90625 0.03125 0  0.9375 0.03125 0  0.96875 0.03125 0  1 0.03125 0  1.03125 0.03125 0  1.0625 0.03125 0  1.09375 0.03125 0  1.125 0.03125 0  1.15625 0.03125 0  1.1875 0.03125 0  1.21875 0.03125 0  1.25 0.03125 0  1.28125 0.03125 0  1.3125 0.03125 0  1.34375 0.03125 0  1.375 0.03125 0  1.40625 0.03125 0  1.4375 0.03125 0  1.46875 0.03125 0  1.5 0.03125 0  0 0.0625 0  0.03125 0.0625 0  0.0625 0.0625 0  0.09375 0.0625 0  0.125 0.0625 0  0.15625 0.0625 0  0.1875 0.0625 0  0.21875 0.0625 0  0.25 0.0625 0  0.28125 0.0625 0  0.3125 0.0625 0  0.34375 0.0625 0  0.375 0.0625 0  0.40625 0.0625 0  0.4375 0.0625 0  0.46875 0.0625 0  0.5 0.0625 0  0.53125 0.0625 0  0.5625 0.0625 0  0.59375 0.0625 0  0.625 0.0625 0  0.65625 0.0625 0  0.6875 0.0625 0  0.71875 0.0625 0  0.75 0.0625 0  0.78125 0.0625 0  0.8125 0.0625 0  0.84375 0.0625 0  0.875 0.0625 0  0.90625 0.0625 0  0.9375 0.0625 0  0.96875 0.0625 0  1 0.0625 0  1.03125 0.0625 0  1.0625 0.0625 0  1.09375 0.0625 0  1.125 0.0625 0  1.15625 0.0625 0  1.1875 0.0625 0  1.21875 0.0625 0  1.25 0.0625 0  1.28125 0.0625 0  1.3125 0.0625 0  1.34375 0.0625 0  1.375 0.0625 0  1.40625 0.0625 0  1.4375 0.0625 0  1.46875 0.0625 0  1.5 0.0625 0  0 0.09375 0  0.03125 0.09375 0  0.0625 0.09375 0  0.09375 0.09375 0  0.125 0.09375 0  0.15625 0.09375 0  0.1875 0.09375 0  0.21875 0.09375 0  0.25 0.09375 0  0.28125 0.09375 0  0.3125 0.09375 0  0.34375 0.09375 0  0.375 0.09375 0  0.40625 0.09375 0  0.4375 0.09375 0  0.46875 0.09375 0  0.5 0.09375 0  0.53125 0.09375 0  0.5625 0.09375 0  0.59375 0.09375 0  0.625 0.09375 0  0.65625 0.09375 0  0.6875 0.09375 0  0.71875 0.09375 0  0.75 0.09375 0  0.78125 0.09375 0  0.8125 0.09375 0  0.84375 0.09375 0  0.875 0.09375 0  0.90625 0.09375 0  0.9375 0.09375 0  0.96875 0.09375 0  1 0.09375 0  1.03125 0.09375 0  1.0625 0.09375 0  1.09375 0.09375 0  1.125 0.09375 0  1.15625 0.09375 0  1.1875 0.09375 0  1.21875 0.09375 0  1.25 0.09375 0  1.28125 0.09375 0  1.3125 0.09375 0  1.34375 0.09375 0  1.375 0.09375 0  1.40625 0.09375 0  1.4375 0.09375 0  1.46875 0.09375 0  1.5 0.09375 0  0 0.125 0  0.03125 0.125 0  0.0625 0.125 0  0.09375 0.125 0  0.125 0.125 0  0.15625 0.125 0  0.1875 0.125 0  0.21875 0.125 0  0.25 0.125 0  0.28125 0.125 0  0.3125 0.125 0  0.34375 0.125 0  0.375 0.125 0  0.40625 0.125 0  0.4375 0.125 0  0.46875 0.125 0  0.5 0.125 0  0.53125 0.125 0  0.5625 0.125 0  0.59375 0.125 0  0.625 0.125 0  0.65625 0.125 0  0.6875 0.125 0  0.71875 0.125 0  0.75 0.125 0  0.78125 0.125 0  0.8125 0.125 0  0.84375 0.125 0  0.875 0.125 0  0.90625 0.125 0  0.9375 0.125 0  0.96875 0.125 0  1 0.125 0  1.03125 0.125 0  1.0625 0.125 0  1.09375 0.125 0  1.125 0.125 0  1.15625 0.125 0  1.1875 0.125 0  1.21875 0.125 0  1.25 0.125 0  1.28125 0.125 0  1.3125 0.125 0  1.34375 0.125 0  1.375 0.125 0  1.40625 0.125 0  1.4375 0.125 0  1.46875 0.125 0  1.5 0.125 0  0 0.15625 0  0.03125 0.15625 0  0.0625 0.15625 0  0.09375 0.15625 0  0.125 0.15625 0  0.15625 0.15625 0  0.1875 0.15625 0  0.21875 0.15625 0  0.25 0.15625 0  0.28125 0.15625 0  0.3125 0.15625 0  0.34375 0.15625 0  0.375 0.15625 0  0.40625 0.15625 0  0.4375 0.15625 0  0.46875 0.15625 0  0.5 0.15625 0  0.53125 0.15625 0  0.5625 0.15625 0  0.59375 0.15625 0  0.625 0.15625 0  0.65625 0.15625 0  0.6875 0.15625 0  0.71875 0.15625 0  0.75 0.15625 0  0.78125 0.15625 0  0.8125 0.15625 0  0.84375 0.15625 0  0.875 0.15625 0  0.90625 0.15625 0  0.9375 0.15625 0  0.96875 0.15625 0  1 0.15625 0  1.03125 0.15625 0  1.0625 0.15625 0  1.09375 0.15625 0  1.125 0.15625 0  1.15625 0.15625 0  1.1875 0.15625 0  1.21875 0.15625 0  1.25 0.15625 0  1.28125 0.15625 0  1.3125 0.15625 0  1.34375 0.15625 0  1.375 0.15625 0  1.40625 0.15625 0  1.4375 0.15625 0  1.46875 0.15625 0  1.5 0.15625 0  0 0.1875 0  0.03125 0.1875 0  0.0625 0.1875 0  0.09375 0.1875 0  0.125 0.1875 0  0.15625 0.1875 0  0.1875 0.1875 0  0.21875 0.1875 0  0.25 0.1875 0  0.28125 0.1875 0  0.3125 0.1875 0  0.34375 0.1875 0  0.375 0.1875 0  0.40625 0.1875 0  0.4375 0.1875 0  0.46875 0.1875 0  0.5 0.1875 0  0.53125 0.1875 0  0.5625 0.1875 0  0.59375 0.1875 0  0.625 0.1875 0  0.65625 0.1875 0  0.6875 0.1875 0  0.71875 0.1875 0  0.75 0.1875 0  0.78125 0.1875 0  0.8125 0.1875 0  0.84375 0.1875 0  0.875 0.1875 0  0.90625 0.1875 0  0.9375 0.1875 0  0.96875 0.1875 0  1 0.1875 0  1.03125 0.1875 0  1.0625 0.1875 0  1.09375 0.1875 0  1.125 0.1875 0  1.15625 0.1875 0  1.1875 0.1875 0  1.21875 0.1875 0  1.25 0.1875 0  1.28125 0.1875 0  1.3125 0.1875 0  1.34375 0.1875 0  1.375 0.1875 0  1.40625 0.1875 0  1.4375 0.1875 0  1.46875 0.1875 0  1.5 0.1875 0  0 0.21875 0  0.03125 0.21875 0  0.0625 0.21875 0  0.09375 0.21875 0  0.125 0.21875 0  0.15625 0.21875 0  0.1875 0.21875 0  0.21875 0.21875 0  0.25 0.21875 0  0.28125 0.21875 0  0.3125 0.21875 0  0.34375 0.21875 0  0.375 0.21875 0  0.40625 0.21875 0  0.4375 0.21875 0  0.46875 0.21875 0  0.5 0.21875 0  0.53125 0.21875 0  0.5625 0.21875 0  0.59375 0.21875 0  0.625 0.21875 0  0.65625 0.21875 0  0.6875 0.21875 0  0.71875 0.21875 0  0.75 0.21875 0  0.78125 0.21875 0  0.8125 0.21875 0  0.84375 0.21875 0  0.875 0.21875 0  0.90625 0.21875 0  0.9375 0.21875 0  0.96875 0.21875 0  1 0.21875 0  1.03125 0.21875 0  1.0625 0.21875 0  1.09375 0.21875 0  1.125 0.21875 0  1.15625 0.21875 0  1.1875 0.21875 0  1.21875 0.21875 0  1.25 0.21875 0  1.28125 0.21875 0  1.3125 0.21875 0  1.34375 0.21875 0  1.375 0.21875 0  1.40625 0.21875 0  1.4375 0.21875 0  1.46875 0.21875 0  1.5 0.21875 0  0 0.25 0  0.03125 0.25 0  0.0625 0.25 0  0.09375 0.25 0  0.125 0.25 0  0.15625 0.25 0  0.1875 0.25 0  0.21875 0.25 0  0.25 0.25 0  0.28125 0.25 0  0.3125 0.25 0  0.34375 0.25 0  0.375 0.25 0  0.40625 0.25 0  0.4375 0.25 0  0.46875 0.25 0  0.5 0.25 0  0.53125 0.25 0  0.5625 0.25 0  0.59375 0.25 0  0.625 0.25 0  0.65625 0.25 0  0.6875 0.25 0  0.71875 0.25 0  0.75 0.25 0  0.78125 0.25 0  0.8125 0.25 0  0.84375 0.25 0  0.875 0.25 0  0.90625 0.25 0  0.9375 0.25 0  0.96875 0.25 0  1 0.25 0  1.03125 0.25 0  1.0625 0.25 0  1.09375 0.25 0  1.125 0.25 0  1.15625 0.25 0  1.1875 0.25 0  1.21875 0.25 0  1.25 0.25 0  1.28125 0.25 0  1.3125 0.25 0  1.34375 0.25 0  1.375 0.25 0  1.40625 0.25 0  1.4375 0.25 0  1.46875 0.25 0  1.5 0.25 0  0 0.28125 0  0.03125 0.28125 0  0.0625 0.28125 0  0.09375 0.28125 0  0.125 0.28125 0  0.15625 0.28125 0  0.1875 0.28125 0  0.21875 0.28125 0  0.25 0.28125 0  0.28125 0.28125 0  0.3125 0.28125 0  0.34375 0.28125 0  0.375 0.28125 0  0.40625 0.28125 0  0.4375 0.28125 0  0.46875 0.28125 0  0.5 0.28125 0  0.53125 0.28125 0  0.5625 0.28125 0  0.59375 0.28125 0  0.625 0.28125 0  0.65625 0.28125 0  0.6875 0.28125 0  0.71875 0.28125 0  0.75 0.28125 0  0.78125 0.28125 0  0.8125 0.28125 0  0.84375 0.28125 0  0.875 0.28125 0  0.90625 0.28125 0  0.9375 0.28125 0  0.96875 0.28125 0  1 0.28125 0  1.03125 0.28125 0  1.0625 0.28125 0  1.09375 0.28125 0  1.125 0.28125 0  1.15625 0.28125 0  1.1875 0.28125 0  1.21875 0.28125 0  1.25 0.28125 0  1.28125 0.28125 0  1.3125 0.28125 0  1.34375 0.28125 0  1.375 0.28125 0  1.40625 0.28125 0  1.4375 0.28125 0  1.46875 0.28125 0  1.5 0.28125 0  0 0.3125 0  0.03125 0.3125 0  0.0625 0.3125 0  0.09375 0.3125 0  0.125 0.3125 0  0.15625 0.3125 0  0.1875 0.3125 0  0.21875 0.3125 0  0.25 0.3125 0  0.28125 0.3125 0  0.3125 0.3125 0  0.34375 0.3125 0  0.375 0.3125 0  0.40625 0.3125 0  0.4375 0.3125 0  0.46875 0.3125 0  0.5 0.3125 0  0.53125 0.3125 0  0.5625 0.3125 0  0.59375 0.3125 0  0.625 0.3125 0  0.65625 0.3125 0  0.6875 0.3125 0  0.71875 0.3125 0  0.75 0.3125 0  0.78125 0.3125 0  0.8125 0.3125 0  0.84375 0.3125 0  0.875 0.3125 0  0.90625 0.3125 0  0.9375 0.3125 0  0.96875 0.3125 0  1 0.3125 0  1.03125 0.3125 0  1.0625 0.3125 0  1.09375 0.3125 0  1.125 0.3125 0  1.15625 0.3125 0  1.1875 0.3125 0  1.21875 0.3125 0  1.25 0.3125 0  1.28125 0.3125 0  1.3125 0.3125 0  1.34375 0.3125 0  1.375 0.3125 0  1.40625 0.3125 0  1.4375 0.3125 0  1.46875 0.3125 0  1.5 0.3125 0  0 0.34375 0  0.03125 0.34375 0  0.0625 0.34375 0  0.09375 0.34375 0  0.125 0.34375 0  0.15625 0.34375 0  0.1875 0.34375 0  0.21875 0.34375 0  0.25 0.34375 0  0.28125 0.34375 0  0.3125 0.34375 0  0.34375 0.34375 0  0.375 0.34375 0  0.40625 0.34375 0  0.4375 0.34375 0  0.46875 0.34375 0  0.5 0.34375 0  0.53125 0.34375 0  0.5625 0.34375 0  0.59375 0.34375 0  0.625 0.34375 0  0.65625 0.34375 0  0.6875 0.34375 0  0.71875 0.34375 0  0.75 0.34375 0  0.78125 0.34375 0  0.8125 0.34375 0  0.84375 0.34375 0  0.875 0.34375 0  0.90625 0.34375 0  0.9375 0.34375 0  0.96875 0.34375 0  1 0.34375 0  1.03125 0.34375 0  1.0625 0.34375 0  1.09375 0.34375 0  1.125 0.34375 0  1.15625 0.34375 0  1.1875 0.34375 0  1.21875 0.34375 0  1.25 0.34375 0  1.28125 0.34375 0  1.3125 0.34375 0  1.34375 0.34375 0  1.375 0.34375 0  1
[...]
<PointData  Scalars="f_81"> 
<DataArray  type="Float64"  Name="f_81"  format="ascii">3.3969397993615491e-01  3.3027758233828880e-01  3.1312089397772586e-01  3.3999411631729637e-01  3.5353297088590530e-01  3.6734369524341859e-01  3.7947983283511572e-01  3.9004737969581127e-01  3.9931286402325894e-01  4.0753483203622731e-01  4.1500295184886304e-01  4.2197529345442919e-01  4.2866002890218713e-01  4.3521028130375677e-01  4.4173110154893325e-01  4.4829164196275917e-01  4.5493713088617543e-01  4.6169814829678801e-01  4.6859661386250240e-01  4.7564899352739870e-01  4.8286759733791940e-01  4.9026081141074213e-01  4.9783292795744349e-01  5.0558403303936450e-01  5.1351022118042522e-01  5.2160423325859762e-01  5.2985646321093804e-01  5.3825616382794861e-01  5.4679261640539545e-01  5.5545601104845632e-01  5.6423778268454361e-01  5.7313010666762787e-01  5.8212410891508815e-01  5.9120607801398950e-01  6.0035059311089645e-01  6.0950947164010949e-01  6.1859543966586084e-01  6.2746294310510253e-01  6.3588510853667635e-01  6.4354960616895740e-01  6.5004085898559216e-01  6.5491021376628100e-01  6.5754312289910211e-01  6.5705254817197478e-01  6.5602663628968183e-01  6.3337781692998985e-01  5.8381488269571780e-01  8.0746529276469570e-01  1.0803392906590747e+00  5.8339541311064214e-01  5.5831526707604862e-01  4.5048776065118895e-01  4.9527507769397866e-01  5.0531888634579891e-01  5.1348437542032999e-01  5.1976571675916239e-01  5.2427968163925565e-01  5.2713802385720143e-01  5.2868206607657819e-01  5.2924899013552151e-01  5.2913898422674321e-01  5.2859365356941213e-01  5.2778641632970713e-01  5.2683178750396631e-01  5.2579997433525949e-01  5.2473137109795698e-01  5.2364782053157077e-01  5.2256001919626538e-01  5.2147175904221177e-01  5.2038208226685567e-01  5.1928633222556675e-01  5.1817681273780247e-01  5.1704348322398719e-01  5.1587487271268051e-01  5.1465920318983904e-01  5.1338557797328555e-01  5.1204502261192930e-01  5.1063116435268008e-01  5.0914037857564243e-01  5.0757126548685150e-01  5.0592328265829078e-01  5.0419418815892569e-01  5.0237565767057624e-01  5.0044607309705313e-01  4.9835950666900891e-01  4.9603013728800699e-01  4.9331444053700280e-01  4.8999247893884268e-01  4.8576540948479319e-01  4.8025663631702376e-01  4.7307836136910236e-01  4.6378047515814846e-01  4.5222713806406317e-01  4.4011367550124653e-01  4.1853971692271796e-01  3.7418267534267019e-01  5.3461844190511221e-01  6.6228953429364024e-01  6.1465863713021418e-01  5.3789243705018996e-01  3.9774383539997776e-01  4.6739097339632124e-01  4.7445834959598632e-01  4.8123046480830556e-01  4.8829926003520885e-01  4.9374782441098813e-01  4.9764296594725516e-01  5.0032439747840585e-01  5.0206791793778793e-01  5.0315891117674383e-01  5.0383143360210059e-01  5.0425761896483212e-01  5.0455280307753936e-01  5.0478808758307636e-01  5.0500446902852336e-01  5.0522432023640140e-01  5.0545926347323800e-01  5.0571486586696512e-01  5.0599311523996404e-01  5.0629359906857896e-01  5.0661406610632498e-01  5.0695079500017448e-01  5.0729899294708503e-01  5.0765330250306917e-01  5.0800839003230203e-01  5.0835951611082431e-01  5.0870294684490636e-01  5.0903605003103802e-01  5.0935689956116104e-01  5.0966313072674208e-01  5.0994959486672697e-01  5.1020407372653231e-01  5.1040001750042485e-01  5.1048541518149915e-01  5.1036748697659373e-01  5.0989610854551071e-01  5.0884899430948738e-01  5.0693657996634733e-01  5.0381617034897708e-01  4.9918088366438873e-01  4.9271651169164044e-01  4.8464370214566310e-01  4.7660085776899935e-01  4.5917568816391935e-01  4.2887810168154694e-01  6.0050388831780033e-01  7.4787595582091593e-01  6.1970856533715080e-01  5.3511155479815897e-01  3.9685686898147987e-01  4.7449636418675167e-01  4.7452633100934383e-01  4.8058405103076085e-01  4.8812894373900612e-01  4.9339959016818197e-01  4.9726313074571710e-01  4.9991522424743151e-01  5.0160774688107124e-01  5.0262327791908190e-01  5.0319365402124672e-01  5.0349479327130631e-01  5.0364510246926442e-01  5.0371785881107911e-01  5.0375529439546074e-01  5.0378044334810013e-01  5.0380540904101712e-01  5.0383629901140070e-01  5.0387576615669039e-01  5.0392411124620928e-01  5.0397968738395560e-01  5.0403910841455735e-01  5.0409756244633530e-01  5.0414936072590388e-01  5.0418869248645559e-01  5.0421041926438692e-01  5.0421066642145784e-01  5.0418697745059338e-01  5.0413783898690245e-01  5.0406136148296721e-01  5.0395273113565808e-01  5.0379976502269797e-01  5.0357562192617378e-01  5.0322794975088037e-01  5.0266442849024850e-01  5.0173818890736277e-01  5.0023632443139798e-01  4.9789077498580009e-01  4.9439807657892376e-01  4.8951739250003634e-01  4.8302386359150895e-01  4.7524352958502331e-01  4.6799045732443811e-01  4.5134603016407993e-01  4.2081493165169542e-01  5.8976460164564004e-01  7.2665308041621091e-01  6.2398629014961715e-01  5.3743986957107770e-01  3.9879332689047337e-01  4.7585189181214671e-01  4.7187414158274771e-01  4.7883418012291629e-01  4.8627673973577484e-01  4.9111153426645693e-01  4.9491947132221575e-01  4.9751323234407796e-01  4.9918660140740029e-01  5.0019404332537565e-01  5.0076094637622204e-01  5.0106054791008925e-01  5.0120971085742216e-01  5.0128148840834130e-01  5.0131831003288307e-01  5.0134380433152104e-01  5.0137105197251675e-01  5.0140746853370011e-01  5.0145718935575745e-01  5.0152191790927780e-01  5.0160102223638314e-01  5.0169148339221981e-01  5.0178811560204406e-01  5.0188427107052658e-01  5.0197298089071929e-01  5.0204821505921915e-01  5.0210580687323736e-01  5.0214367255701187e-01  5.0216115322174359e-01  5.0215739416407812e-01  5.0212852335320857e-01  5.0206306597527539e-01  5.0193471728256123e-01  5.0169184178865822e-01  5.0124380315251305e-01  5.0044779900248537e-01  4.9909960883721743e-01  4.9694709148459831e-01  4.9371289768088328e-01  4.8919054264704603e-01  4.8319529299404290e-01  4.7608016667153091e-01  4.6960044401668122e-01  4.5395091473465238e-01  4.2439666910234114e-01  5.9491768972479275e-01  7.3512204525055680e-01  6.2700731661057485e-01  5.3956628284514274e-01  4.0012186252586973e-01  4.7632952325784261e-01  4.7136058877901665e-01  4.7896738233006819e-01  4.8580395111320612e-01  4.9039598413161040e-01  4.9418637908986102e-01  4.9670527421636618e-01  4.9834960789399901e-01  4.9932892884976066e-01  4.9987205383280231e-01  5.0014729169798311e-01  5.0027038989572015e-01  5.0031427228153358e-01  5.0032186101630216e-01  5.0031793743237840e-01  5.0031731188383588e-01  5.0032953529200208e-01  5.0036093992776209e-01  5.0041497726433637e-01  5.0049170121461994e-01  5.0058724654406839e-01  5.0069396801053867e-01  5.0080163732525085e-01  5.0089958408532975e-01  5.0097905483246619e-01  5.0103480748812868e-01  5.0106532368089252e-01  5.0107162255149462e-01  5.0105494989542432e-01  5.0101340951865836e-01  5.0093711682758657e-01  5.0080101697732415e-01  5.0055472441919269e-01  5.0010950679428856e-01  4.9932613563090211e-01  4.9800696058971589e-01  4.9591082491443383e-01  4.9277619973169723e-01  4.8841655737485024e-01  4.8266381678896547e-01  4.7588703277741895e-01  4.6979534353245489e-01  4.5463578263912036e-01  4.2542041168972117e-01  5.9642067023758305e-01  7.3676594737478840e-01  6.2945275210645002e-01  5.4138715340802146e-01  4.0099235649250847e-01  4.7680414767316415e-01  4.7159968718992967e-01  4.7918090738676672e-01  4.8555035754915243e-01  4.9012390995665622e-01  4.9386759070152741e-01  4.9632072413098788e-01  4.9794367798483091e-01  4.9889904251524031e-01  4.9942425781926814e-01  4.9967989217535247e-01  4.9978155875286606e-01  4.9980166783342611e-01  4.9978384275919163e-01  4.9975455981533634e-01  4.9973131440820051e-01  4.9972705212464924e-01  4.9975171871322049e-01  4.9981166699512242e-01  4.9990794490722140e-01  5.0003486564852850e-01  5.0017994987914005e-01  5.0032616293314869e-01  5.0045620949315517e-01  5.0055709238339874e-01  5.0062271064942054e-01  5.0065357043723280e-01  5.0065423590097191e-01  5.0062965580295049e-01  5.0058094063142888e-01  5.0050024730502463e-01  5.0036376396709170e-01  5.0012198511349104e-01  4.9968730726431715e-01  4.9892265704803584e-01  4.9763443884386255e-01  4.9558828844999070e-01  4.9253236460669986e-01  4.8829201570389580e-01  4.8270932305349207e-01  4.7616337742548015e-01  4.7034134317211912e-01  4.5555345514653584e-01  4.2668354684126630e-01  5.9833556806224197e-01  7.3919004312153180e-01  6.3135309591505984e-01  5.4282835760249948e-01  4.0166911137647737e-01  4.7736707462802425e-01  4.7197149106278835e-01  4.7938966521535969e-01  4.8557742285555017e-01  4.9015626286464603e-01  4.9382374213253694e-01  4.9623869675879401e-01  4.9784530122375414e-01  4.9878044996797327e-01  4.9928882370050304e-01  4.9952344399894455e-01  4.9960053116350367e-01  4.9959152801362550e-01  4.9954107709214191e-01  4.9947803443863620e-01  4.9942390552373683e-01  4.9939704060983175e-01  4.9941364125103926e-01  4.9948528674825271e-01  4.9961496870477817e-01  4.9979379662282797e-01  5.0000018875065311e-01  5.0020435777741434e-01  5.0037746988579623e-01  5.0050064245047488e-01  5.0056862790325185e-01  5.0058741055407108e-01  5.0056848382273744e-01  5.0052278419380614e-01  5.0045544356559291e-01  5.0036071431678675e-01  5.0021552152622972e-01  4.9997044738079022e-01  4.9953801959678151e-01  4.9878201370650616e-01  4.9751106473111800e-01  4.9549503212202506e-01  4.9248849375539694e-01  4.8832524040644448e-01  4.8285531707873791e-01  4.7646745179183270e-01  4.7083874886904359e-01  4.5633269295078660e-01  4.2772669911023492e-01  5.9992016397970083e-01  7.4123951021925305e-01  6.3280378782460833e-01  5.4393479142385825e-01  4.0215743161793482e-01  4.7780874359705167e-01  4.7223249963760250e-01  4.7955553950448693e-01  4.8566981436097706e-01  4.9021875941581516e-01  4.9383452997134897e-01  4.9623930775556835e-01  4.9783612137191324e-01  4.9876015406905660e-01  4.9925704672921400e-01  4.9947404113848953e-01  4.9952720132938777e-01  4.9948637543193125e-01  4.9939721641363527e-01  4.9929143378321905e-01  4.9919600451088114e-01  4.9913785968513297e-01  4.9914409674155541e-01  4.9923577676128478e-01  4.9942034554601278e-01  4.9968383510447362e-01  4.9998722301804838e-01  5.0027639915650013e-01  5.0050295800087730e-01  5.0064193564621273e-01  5.0069483611400378e-01  5.0068054302081555e-01  5.0062297678057299e-01  5.0054160867573172e-01  5.0044581081984896e-01  5.0033090610733544e-01  5.0017314585738137e-01  4.9992184913560594e-01  4.9948848622398928e-01  4.9873654601023704e-01  4.9747561750311547e-01  4.9547819599498982e-01  4.9250339916040276e-01  4.8839153722644857e-01  4.8299961603663216e-01  4.7672538961643829e-01  4.7124315463322713e-01  4.5696116012743471e-01  4.2857623217365765e-01  6.0124027247830425e-01  7.4298476439299133e-01  6.3389876139811874e-01  5.4477787365464159e-01  4.0250533257888449e-01  4.7814528452181354e-01  4.7242685777225568e-01  4.7970208982597468e-01  4.8576286227670207e-01  4.9028143616102676e-01  4.9387693077771799e-01  4.9628030287463587e-01  4.9787189722606096e-01  4.9879194224301759e-01  4.9928138204311290e-01  4.9948337595637171e-01  4.9951213545117684e-01  4.9943495370706165e-01  4.9929776571004375e-01  4.9913455285597946e-01  4.9897920933747941e-01  4.9887211185510055e-01  4.9885844886327774e-01  4.9897666058651541e-01  4.9924581603524287e-01  4.9964445316370348e-01  5.0009803232979055e-01  5.0050440958620290e-01  5.0078355183010581e-01  5.0091086475816060e-01  5.0091040046424362e-01  5.0082783900601713e-01  5.0070651758150930e-01  5.0057533033871537e-01  5.0044550896656537e-01  5.0031022364988831e-01  5.0014227446737902e-01  4.9988776357320291e-01  4.9945586118904467e-01  4.9870893952391121e-01  4.9745681722848917e-01  4.9547376562120832e-01  4.9252238521926084e-01  4.8844829905881088e-01  4.8311468161872406e-01  4.7692730664022770e-01  4.7156160653240337e-01  4.5746147710916041e-01  4.2926251600877063e-01  6.0233137048519547e-01  7.4447035112415083e-01  6.3472052590175299e-01  5.4541688173881864e-01  4.0274931257149121e-01  4.7839836774942956e-01  4.7256781824830080e-01  4.7981629641852425e-01  4.8583643111755626e-01  4.9033976432588983e-01  4.9393021771164974e-01  4.9633566862136008e-01  4.9792987941843042e-01  4.9885368294067006e-01  4.9934216049805247e-01  4.9953511536455786e-01  4.9954291837770060e-01  4.9942867180314388e-01  4.9923638457648373e-01  4.9899922704652611e-01  4.9875956299265084e-01  4.9857591734247253e-01  4.9852114011249282e-01  4.9866755255939793e-01  4.9906593142942307e-01  4.9968367190811225e-01  5.0036877766799437e-01  5.0092195231065884e-01  5.0121851936065853e-01  5.0126296225158584e-01  5.0113805331579997e-01  5.0093736669422784e-01  5.0072767617071734e-01  5.0054161536438779e-01  5.0038427019506770e-01  5.0024003153600649e-01  5.0007400216302655e-01  4.9982686795487019e-01  4.9940462541335534e-01  4.9866831158052977e-01  4.9742792229625160e-01  4.9545930455272130e-01  4.9252807295133477e-01  4.8848439323743997e-01  4.8319691127422909e-01  4.7707824028744744e-01  4.7180719234722629e-01  4.5785525771650321e-01  4.2981171493816062e-01  6.0322203689754761e-01  7.4571583352167703e-01  6.3533483217207798e-01  5.4589960255721293e-01  4.0292172179905289e-01  4.7859241998717861e-01  4.7267338613746357e-01  4.7990868154078387e-01  4.8590091373790500e-01  4.9039969112872239e-01  4.9399196198381756e-01  4.9640528781948173e-01  4.9801102878258302e-01  4.9894744223014087e-01  4.9944547587818150e-01  4.9964142911709819e-01  4.9964028499139068e-01  4.9949883836462045e-01  4.9925461640699093e-01  4.9893388285008583e-01  4.9858725345108534e-01  4.9828653370615800e-01  4.9814543201240602e-01  4.9830331819439644e-01  4.9889676366821956e-01  4.9987756984413467e-01  5.0091524627247319e-01  5.0161130298727696e-01  5.0180205783205500e-01  5.0161179206510331e-01  5.0125105662367375e-01  5.0088064845173064e-01  5.0057749154916720e-01  5.0035760139995311e-01  5.0020332515169508e-01  5.0008044068167989e-01  4.9994188721913529e-01  4.9972175157069215e-01  4.9932327480221028e-01  4.9860710250045709e-01  4.9738428348466301e-01  4.9543275577098184e-01  4.9252121773934698e-01  4.8850398617948898e-01  4.8325461689958704e-01  4.7719143232341898e-01  4.7199781870361296e-01  4.5816602401332635e-01  4.3025064421818227e-01  6.0394343518509153e-01  7.4674732766093899e-01  6.3578910411950940e-01  5.4625975493232848e-01  4.0304387182702078e-01  4.7874262780701193e-01  4.7275470139782710e-01  4.7998609053500019e-01  4.8596018528259227e-01  4.9046104233513960e-01  4.9406068224680322e-01  4.9648860664894523e-01  4.9811440900458032e-01  4.9907436391466509e-01  4.9959745848520015e-01  4.9981698600800745e-01  4.9983266969620033e-01  4.9969340819909142e-01  4.9942421066251336e-01  4.9903637739368545e-01  4.9857648190370085e-01  4.9810023223046457e-01  4.9778483166107945e-01  4.9788987597338652e-01  4.9878621413895952e-01  5.0038510667222624e-01  5.0194446223391331e-01  5.0267531934471998e-01  5.0244506087121443e-01  5.0174404507595916e-01  5.0101794026977364e-01  5.0046645509480581e-01  5.0012220653098405e-01  4.9993923298777670e-01  4.9985451016419480e-01  4.9980638088306817e-01  4.9973452633235699e-01  4.9956853005502228e-01  4.9921177419399387e-01  4.9852712286369688e-01  4.9732861159838443e-01  4.9539745110343208e-01  4.9250591824996176e-01  4.8851236845602358e-01  4.8329482210177344e-01  4.7727631693203515e-01  4.7214526245713440e-01  4.5840899058387385e-01  4.3059662799151738e-01  6.0451587362002079e-01  7.4758026098497077e-01  6.3611609595900109e-01  5.4652029489418807e-01  4.0312842608891652e-01  4.7885681159708382e-01  4.7281670769838918e-01  4.8005003286041015e-01  4.8601321586041263e-01  4.9052044761299662e-01  4.9413153626193584e-01  4.9657896897327908e-01  4.9823168379659810e-01  4.9922606078594084e-01  4.9979156088909549e-01  5.0006108270204097e-01  5.0013234152607211e-01  5.0004864932335058e-01  4.9982228756476926e-01  4.9944637182555279e-01  4.9893610082463952e-01  4.9828410211387553e-01  4.9772730601062631e-01  4.9762445546372019e-01  4.9888248094043425e-01  5.0143365278468044e-01  5.0382449071792579e-01  5.0422026060736969e-01  5.0284329673555228e-01  5.0125578868564491e-01  5.0010027216909581e-01  4.9948518467322778e-01  4.9925233238085703e-01  4.9924211700162391e-01  4.9932802224117978e-01  4.9942373293850245e-01  4.9946321109403069e-01  4.9937901529283013e-01  4.9908050460219450e-01  4.9843682791375482e-01  4.9726759582863861e-01  4.9535874416173054e-01  4.9248672755508577e-01  4.8851387704257948e-01  4.8332221923474783e-01  4.7733860400296846e-01  4.7225628451504437e-01  4.5859300802456548e-01  4.3086004796253352e-01  6.0495193484609577e-01  7.4822347927106647e-01  6.3633795554065475e-01  5.4669663313351025e-01  4.0318245541960734e-01  4.7893837650970666e-01  4.7286066190155807e-01  4.8009893399910197e-01  4.8605617538635304e-01  4.9057146734437973e-01  4.9419507403861790e-01  4.9666297309716101e-01  4.9834465443667569e-01  4.9937850001419259e-01  4.9999701196200214e-01  5.0033687266952231e-01  5.0050041759484121e-01  5.0053537910775625e-01  5.0045615863261461e-01  5.0025106197176639e-01  4.9988670150834547e-01  4.9923830168548416e-01  4.9840106175246829e-01  4.9751420074107122e-01  4.9861691749404602e-01  5.0309109948874020e-01  5.0716151492157568e-01  5.0666419413669894e-01  5.0285329926054845e-01  4.9947811337964798e-01  4.9822586283353271e-01  4.9786715012417165e-01  4.9800826528859810e-01  4.9833958618916357e-01  4.9869691491983686e-01  4.9899248678232488e-01  4.9917283615508934e-01  4.9918509886070517e-01  4.9895143729836167e-01  4.9835109776624420e-01  4.9721125104712333e-01  4.9532342948086294e-01  4.9246841839688882e-01  4.8851216427188926e-01  4.8334002937055570e-01  4.7738174103294584e-01  4.7233464205596776e-01  4.5872300803966598e-01  4.3104680106970777e-01  6.0525883665391900e-01  7.4868149808506956e-01  6.3646913444962061e-01  5.4679879577293911e-01  4.0320971729200733e-01  4.7898850053163750e-01  4.7288611960878502e-01  4.8013001433113778e-01  4.8608416308948543e-01  4.9060631226722645e-01  4.9423963833692452e-01  4.9672336168560283e-01  4.9842786872783679e-01  4.9949407862773421e-01  5.0015847962664317e-01  5.0056381975456232e-01  5.0082202387091990e-01  5.0099586362164295e-01  5.0112313559275723e-01  5.0122383075293342e-01  5.0129072280071085e-01  5.0124183612032669e-01  5.0117410779408555e-01  5.0082158362580431e-01  5.0009432946824794e-01  5.0643078567119093e-01  5.1643608922960360e-01  5.1434592371581700e-01  5.0051775680060762e-01  4.9728124683733177e-01  4.9554695099017143e-01  4.9599140181733381e-01  4.9673221187298927e-01  4.9749355317446864e-01  4.9814306552546028e-01  4.9863287320804367e-01  4.9894062586148413e-01  4.9903548471856707e-01  4.9885495994858481e-01  4.9828879156507383e-01  4.9717127512806886e-01  4.9529880634518231e-01  4.9245563782846158e-01  4.8851035531955256e-01  4.8335060632647292e-01  4.7740791214631245e-01  4.7238245581984978e-01  4.5880169462670001e-01  4.3116011774580082e-01  6.0544043590549101e-01  7.4895625974629143e-01  6.3651794486386792e-01  5.4683250254715565e-01  4.0321194427958434e-01  4.7900742386882778e-01  4.7289227822104618e-01  4.8014086385593924e-01  4.8609319286301134e-01  4.9061865023592716e-01  4.9425552822871305e-01  4.9674521200257471e-01  4.9845817398342496e-01  4.9953647256986677e-01  5.0021833381532210e-01  5.0064931440296723e-01  5.0094617053287382e-01  5.0118009918639783e-01  5.0140417470485521e-01  5.0166737203343947e-01  5.0203188381646868e-01  5.0261042612914275e-01  5.0385846108361143e-01  5.0601162828727408e-01  5.0286210745019810e-01  5.2689763829906944e-01  5.2372261401486087e-01  5.2501778755167650e-01  5.2177519588491350e-01  4.9248798565475982e-01  4.9404805205152857e-01  4.9491656220895125e-01  4.9609400524978592e-01  4.9710830053946969e-01  4.9790495855330918e-01  4.9848533327687872e-01  4.9884895973037713e-01  4.9897845533779195e-01  4.9881938132915921e-01  4.9826654134496740e-01  4.9715748340220650e-01  4.9529071739817693e-01  4.9245192856768366e-01  4.8851069448975226e-01  4.8335551182267111e-01  4.7741842959173991e-01  4.7240088197284230e-01  4.5883046260151983e