<?xml version="1.0"?>
<VTKFile type="UnstructuredGrid"  version="0.1"  >
<UnstructuredGrid>
<Piece  NumberOfPoints="1617" NumberOfCells="3072">
<Points>
<DataArray  type="Float64"  NumberOfComponents="3"  format="ascii">0 0 0  0.03125 0 0  0.0625 0 0  0.09375 0 0  0.125 0 0  0.15625 0 0  0.1875 0 0  0.21875 0 0  0.25 0 0  0.28125 0 0  0.3125 0 0  0.34375 0 0  0.375 0 0  0.40625 0 0  0.4375 0 0  0.46875 0 0  0.5 0 0  0.53125 0 0  0.5625 0 0  0.59375 0 0  0.625 0 0  0.65625 0 0  0.6875 0 0  0.71875 0 0  0.75 0 0  0.78125 0 0  0.8125 0 0  0.84375 0 0  0.875 0 0  0.90625 0 0  0.9375 0 0  0.96875 0 0  1 0 0  1.03125 0 0  1.0625 0 0  1.09375 0 0  1.125 0 0  1.15625 0 0  1.1875 0 0  1.21875 0 0  1.25 0 0  1.28125 0 0  1.3125 0 0  1.34375 0 0  1.375 0 0  1.40625 0 0  1.4375 0 0  1.46875 0 0  1.5 0 0  0 0.03125 0  0.03125 0.03125 0  0.0625 0.03125 0  0.09375 0.03125 0  0.125 0.03125 0  0.15625 0.03125 0  0.1875 0.03125 0  0.21875 0.03125 0  0.25 0.03125 0  0.28125 0.03125 0  0.3125 0.03125 0  0.34375 0.03125 0  0.375 0.03125 0  0.40625 0.03125 0  0.4375 0.03125 0  0.46875 0.03125 0  0.5 0.03125 0  0.53125 0.03125 0  0.5625 0.03125 0  0.59375 0.03125 0  0.625 0.03125 0  0.65625 0.03125 0  0.6875 0.03125 0  0.71875 0.03125 0  0.75 0.03125 0  0.78125 0.03125 0  0.8125 0.03125 0  0.84375 0.03125 0  0.875 0.03125 0  0.90625 0.03125 0  0.9375 0.03125 0  0.96875 0.03125 0  1 0.03125 0  1.03125 0.03125 0  1.0625 0.03125 0  1.09375 0.03125 0  1.125 0.03125 0  1.15625 0.03125 0  1.1875 0.03125 0  1.21875 0.03125 0  1.25 0.03125 0  1.28125 0.03125 0  1.3125 0.03125 0  1.34375 0.03125 0  1.375 0.03125 0  1.40625 0.03125 0  1.4375 0.03125 0  1.46875 0.03125 0  1.5 0.03125 0  0 0.0625 0  0.03125 0.0625 0  0.0625 0.0625 0  0.09375 0.0625 0  0.125 0.0625 0  0.15625 0.0625 0  0.1875 0.0625 0  0.21875 0.0625 0  0.25 0.0625 0  0.28125 0.0625 0  0.3125 0.0625 0  0.34375 0.0625 0  0.375 0.0625 0  0.40625 0.0625 0  0.4375 0.0625 0  0.46875 0.0625 0  0.5 0.0625 0  0.53125 0.0625 0  0.5625 0.0625 0  0.59375 0.0625 0  0.625 0.0625 0  0.65625 0.0625 0  0.6875 0.0625 0  0.71875 0.0625 0  0.75 0.0625 0  0.78125 0.0625 0  0.8125 0.0625 0  0.84375 0.0625 0  0.875 0.0625 0  0.90625 0.0625 0  0.9375 0.0625 0  0.96875 0.0625 0  1 0.0625 0  1.03125 0.0625 0  1.0625 0.0625 0  1.09375 0.0625 0  1.125 0.0625 0  1.15625 0.0625 0  1.1875 0.0625 0  1.21875 0.0625 0  1.25 0.0625 0  1.28125 0.0625 0  1.3125 0.0625 0  1.34375 0.0625 0  1.375 0.0625 0  1.40625 0.0625 0  1.4375 0.0625 0  1.46875 0.0625 0  1.5 0.0625 0  0 0.09375 0  0.03125 0.09375 0  0.0625 0.09375 0  0.09375 0.09375 0  0.125 0.09375 0  0.15625 0.09375 0  0.1875 0.09375 0  0.21875 0.09375 0  0.25 0.09375 0  0.28125 0.09375 0  0.3125 0.09375 0  0.34375 0.09375 0  0.375 0.09375 0  0.40625 0.09375 0  0.4375 0.09375 0  0.46875 0.09375 0  0.5 0.09375 0  0.53125 0.09375 0  0.5625 0.09375 0  0.59375 0.09375 0  0.625 0.09375 0  0.65625 0.09375 0  0.6875 0.09375 0  0.71875 0.09375 0  0.75 0.09375 0  0.78125 0.09375 0  0.8125 0.09375 0  0.84375 0.09375 0  0.875 0.09375 0  0.90625 0.09375 0  0.9375 0.09375 0  0.96875 0.09375 0  1 0.09375 0  1.03125 0.09375 0  1.0625 0.09375 0  1.09375 0.09375 0  1.125 0.09375 0  1.15625 0.09375 0  1.1875 0.09375 0  1.21875 0.09375 0  1.25 0.09375 0  1.28125 0.09375 0  1.3125 0.09375 0  1.34375 0.09375 0  1.375 0.09375 0  1.40625 0.09375 0  1.4375 0.09375 0  1.46875 0.09375 0  1.5 0.09375 0  0 0.125 0  0.03125 0.125 0  0.0625 0.125 0  0.09375 0.125 0  0.125 0.125 0  0.15625 0.125 0  0.1875 0.125 0  0.21875 0.125 0  0.25 0.125 0  0.28125 0.125 0  0.3125 0.125 0  0.34375 0.125 0  0.375 0.125 0  0.40625 0.125 0  0.4375 0.125 0  0.46875 0.125 0  0.5 0.125 0  0.53125 0.125 0  0.5625 0.125 0  0.59375 0.125 0  0.625 0.125 0  0.65625 0.125 0  0.6875 0.125 0  0.71875 0.125 0  0.75 0.125 0  0.78125 0.125 0  0.8125 0.125 0  0.84375 0.125 0  0.875 0.125 0  0.90625 0.125 0  0.9375 0.125 0  0.96875 0.125 0  1 0.125 0  1.03125 0.125 0  1.0625 0.125 0  1.09375 0.125 0  1.125 0.125 0  1.15625 0.125 0  1.1875 0.125 0  1.21875 0.125 0  1.25 0.125 0  1.28125 0.125 0  1.3125 0.125 0  1.34375 0.125 0  1.375 0.125 0  1.40625 0.125 0  1.4375 0.125 0  1.46875 0.125 0  1.5 0.125 0  0 0.15625 0  0.03125 0.15625 0  0.0625 0.15625 0  0.09375 0.15625 0  0.125 0.15625 0  0.15625 0.15625 0  0.1875 0.15625 0  0.21875 0.15625 0  0.25 0.15625 0  0.28125 0.15625 0  0.3125 0.15625 0  0.34375 0.15625 0  0.375 0.15625 0  0.40625 0.15625 0  0.4375 0.15625 0  0.46875 0.15625 0  0.5 0.15625 0  0.53125 0.15625 0  0.5625 0.15625 0  0.59375 0.15625 0  0.625 0.15625 0  0.65625 0.15625 0  0.6875 0.15625 0  0.71875 0.15625 0  0.75 0.15625 0  0.78125 0.15625 0  0.8125 0.15625 0  0.84375 0.15625 0  0.875 0.15625 0  0.90625 0.15625 0  0.9375 0.15625 0  0.96875 0.15625 0  1 0.15625 0  1.03125 0.15625 0  1.0625 0.15625 0  1.09375 0.15625 0  1.125 0.15625 0  1.15625 0.15625 0  1.1875 0.15625 0  1.21875 0.15625 0  1.25 0.15625 0  1.28125 0.15625 0  1.3125 0.15625 0  1.34375 0.15625 0  1.375 0.15625 0  1.40625 0.15625 0  1.4375 0.15625 0  1.46875 0.15625 0  1.5 0.15625 0  0 0.1875 0  0.03125 0.1875 0  0.0625 0.1875 0  0.09375 0.1875 0  0.125 0.1875 0  0.15625 0.1875 0  0.1875 0.1875 0  0.21875 0.1875 0  0.25 0.1875 0  0.28125 0.1875 0  0.3125 0.1875 0  0.34375 0.1875 0  0.375 0.1875 0  0.40625 0.1875 0  0.4375 0.1875 0  0.46875 0.1875 0  0.5 0.1875 0  0.53125 0.1875 0  0.5625 0.1875 0  0.59375 0.1875 0  0.625 0.1875 0  0.65625 0.1875 0  0.6875 0.1875 0  0.71875 0.1875 0  0.75 0.1875 0  0.78125 0.1875 0  0.8125 0.1875 0  0.84375 0.1875 0  0.875 0.1875 0  0.90625 0.1875 0  0.9375 0.1875 0  0.96875 0.1875 0  1 0.1875 0  1.03125 0.1875 0  1.0625 0.1875 0  1.09375 0.1875 0  1.125 0.1875 0  1.15625 0.1875 0  1.1875 0.1875 0  1.21875 0.1875 0  1.25 0.1875 0  1.28125 0.1875 0  1.3125 0.1875 0  1.34375 0.1875 0  1.375 0.1875 0  1.40625 0.1875 0  1.4375 0.1875 0  1.46875 0.1875 0  1.5 0.1875 0  0 0.21875 0  0.03125 0.21875 0  0.0625 0.21875 0  0.09375 0.21875 0  0.125 0.21875 0  0.15625 0.21875 0  0.1875 0.21875 0  0.21875 0.21875 0  0.25 0.21875 0  0.28125 0.21875 0  0.3125 0.21875 0  0.34375 0.21875 0  0.375 0.21875 0  0.40625 0.21875 0  0.4375 0.21875 0  0.46875 0.21875 0  0.5 0.21875 0  0.53125 0.21875 0  0.5625 0.21875 0  0.59375 0.21875 0  0.625 0.21875 0  0.65625 0.21875 0  0.6875 0.21875 0  0.71875 0.21875 0  0.75 0.21875 0  0.78125 0.21875 0  0.8125 0.21875 0  0.84375 0.21875 0  0.875 0.21875 0  0.90625 0.21875 0  0.9375 0.21875 0  0.96875 0.21875 0  1 0.21875 0  1.03125 0.21875 0  1.0625 0.21875 0  1.09375 0.21875 0  1.125 0.21875 0  1.15625 0.21875 0  1.1875 0.21875 0  1.21875 0.21875 0  1.25 0.21875 0  1.28125 0.21875 0  1.3125 0.21875 0  1.34375 0.21875 0  1.375 0.21875 0  1.40625 0.21875 0  1.4375 0.21875 0  1.46875 0.21875 0  1.5 0.21875 0  0 0.25 0  0.03125 0.25 0  0.0625 0.25 0  0.09375 0.25 0  0.125 0.25 0  0.15625 0.25 0  0.1875 0.25 0  0.21875 0.25 0  0.25 0.25 0  0.28125 0.25 0  0.3125 0.25 0  0.34375 0.25 0  0.375 0.25 0  0.40625 0.25 0  0.4375 0.25 0  0.46875 0.25 0  0.5 0.25 0  0.53125 0.25 0  0.5625 0.25 0  0.59375 0.25 0  0.625 0.25 0  0.65625 0.25 0  0.6875 0.25 0  0.71875 0.25 0  0.75 0.25 0  0.78125 0.25 0  0.8125 0.25 0  0.84375 0.25 0  0.875 0.25 0  0.90625 0.25 0  0.9375 0.25 0  0.96875 0.25 0  1 0.25 0  1.03125 0.25 0  1.0625 0.25 0  1.09375 0.25 0  1.125 0.25 0  1.15625 0.25 0  1.1875 0.25 0  1.21875 0.25 0  1.25 0.25 0  1.28125 0.25 0  1.3125 0.25 0  1.34375 0.25 0  1.375 0.25 0  1.40625 0.25 0  1.4375 0.25 0  1.46875 0.25 0  1.5 0.25 0  0 0.28125 0  0.03125 0.28125 0  0.0625 0.28125 0  0.09375 0.28125 0  0.125 0.28125 0  0.15625 0.28125 0  0.1875 0.28125 0  0.21875 0.28125 0  0.25 0.28125 0  0.28125 0.28125 0  0.3125 0.28125 0  0.34375 0.28125 0  0.375 0.28125 0  0.40625 0.28125 0  0.4375 0.28125 0  0.46875 0.28125 0  0.5 0.28125 0  0.53125 0.28125 0  0.5625 0.28125 0  0.59375 0.28125 0  0.625 0.28125 0  0.65625 0.28125 0  0.6875 0.28125 0  0.71875 0.28125 0  0.75 0.28125 0  0.78125 0.28125 0  0.8125 0.28125 0  0.84375 0.28125 0  0.875 0.28125 0  0.90625 0.28125 0  0.9375 0.28125 0  0.96875 0.28125 0  1 0.28125 0  1.03125 0.28125 0  1.0625 0.28125 0  1.09375 0.28125 0  1.125 0.28125 0  1.15625 0.28125 0  1.1875 0.28125 0  1.21875 0.28125 0  1.25 0.28125 0  1.28125 0.28125 0  1.3125 0.28125 0  1.34375 0.28125 0  1.375 0.28125 0  1.40625 0.28125 0  1.4375 0.28125 0  1.46875 0.28125 0  1.5 0.28125 0  0 0.3125 0  0.03125 0.3125 0  0.0625 0.3125 0  0.09375 0.3125 0  0.125 0.3125 0  0.15625 0.3125 0  0.1875 0.3125 0  0.21875 0.3125 0  0.25 0.3125 0  0.28125 0.3125 0  0.3125 0.3125 0  0.34375 0.3125 0  0.375 0.3125 0  0.40625 0.3125 0  0.4375 0.3125 0  0.46875 0.3125 0  0.5 0.3125 0  0.53125 0.3125 0  0.5625 0.3125 0  0.59375 0.3125 0  0.625 0.3125 0  0.65625 0.3125 0  0.6875 0.3125 0  0.71875 0.3125 0  0.75 0.3125 0  0.78125 0.3125 0  0.8125 0.3125 0  0.84375 0.3125 0  0.875 0.3125 0  0.90625 0.3125 0  0.9375 0.3125 0  0.96875 0.3125 0  1 0.3125 0  1.03125 0.3125 0  1.0625 0.3125 0  1.09375 0.3125 0  1.125 0.3125 0  1.15625 0.3125 0  1.1875 0.3125 0  1.21875 0.3125 0  1.25 0.3125 0  1.28125 0.3125 0  1.3125 0.3125 0  1.34375 0.3125 0  1.375 0.3125 0  1.40625 0.3125 0  1.4375 0.3125 0  1.46875 0.3125 0  1.5 0.3125 0  0 0.34375 0  0.03125 0.34375 0  0.0625 0.34375 0  0.09375 0.34375 0  0.125 0.34375 0  0.15625 0.34375 0  0.1875 0.34375 0  0.21875 0.34375 0  0.25 0.34375 0  0.28125 0.34375 0  0.3125 0.34375 0  0.34375 0.34375 0  0.375 0.34375 0  0.40625 0.34375 0  0.4375 0.34375 0  0.46875 0.34375 0  0.5 0.34375 0  0.53125 0.34375 0  0.5625 0.34375 0  0.59375 0.34375 0  0.625 0.34375 0  0.65625 0.34375 0  0.6875 0.34375 0  0.71875 0.34375 0  0.75 0.34375 0  0.78125 0.34375 0  0.8125 0.34375 0  0.84375 0.34375 0  0.875 0.34375 0  0.90625 0.34375 0  0.9375 0.34375 0  0.96875 0.34375 0  1 0.34375 0  1.03125 0.34375 0  1.0625 0.34375 0  1.09375 0.34375 0  1.125 0.34375 0  1.15625 0.34375 0  1.1875 0.34375 0  1.21875 0.34375 0  1.25 0.34375 0  1.28125 0.34375 0  1.3125 0.34375 0  1.34375 0.34375 0  1.375 0.34375 0  1
[...]
<PointData  Scalars="f_81"> 
<DataArray  type="Float64"  Name="f_81"  format="ascii">2.0456502505431882e-02  3.9343669741043535e-01  4.9077877251504004e-01  5.0149164579801697e-01  5.1524010033276879e-01  5.2310582508354209e-01  5.2664547246466076e-01  5.2765741327269522e-01  5.2748134392764978e-01  5.2680074927205667e-01  5.2592187007199787e-01  5.2496170731573455e-01  5.2396422941064269e-01  5.2294807601264004e-01  5.2192393017008298e-01  5.2089998233284962e-01  5.1988347456005679e-01  5.1888097086996099e-01  5.1789819571950113e-01  5.1693971346369127e-01  5.1600858291142315e-01  5.1510610088399278e-01  5.1423174338628741e-01  5.1338338770585501e-01  5.1255784328144749e-01  5.1175164144200702e-01  5.1096195676449974e-01  5.1018748412573467e-01  5.0942909728936214e-01  5.0869016729053596e-01  5.0797650608602141e-01  5.0729598003264798e-01  5.0665791647917668e-01  5.0607235463572275e-01  5.0554947077697066e-01  5.0509828914626198e-01  5.0472746547669323e-01  5.0443822253646065e-01  5.0423414078964812e-01  5.0407879646323406e-01  5.0387133300731735e-01  5.0349507685123940e-01  5.0072817932732716e-01  4.9942635801091462e-01  4.7213951462063775e-01  4.8444520906056809e-01  4.7820138231273779e-01  -3.7446864025530141e-01  2.8616527626342476e+00  -2.3357350092409284e-02  3.9802066611555548e-01  4.5237155273178831e-01  4.8074418228586013e-01  4.9002419796627150e-01  5.0010992613021266e-01  5.0490556408981990e-01  5.0677641174361621e-01  5.0724974571384707e-01  5.0718968603860548e-01  5.0696318953851349e-01  5.0670395582360006e-01  5.0645506437544119e-01  5.0622978012870445e-01  5.0603273272994664e-01  5.0586627413987706e-01  5.0573218516800467e-01  5.0563198296564071e-01  5.0556680718689684e-01  5.0553715387449760e-01  5.0554256949830689e-01  5.0558139143763503e-01  5.0565061790582944e-01  5.0574597414293210e-01  5.0586220357455969e-01  5.0599355734827611e-01  5.0613439847928143e-01  5.0627979831574998e-01  5.0642600012639638e-01  5.0657066039967713e-01  5.0671283984121174e-01  5.0685277592715150e-01  5.0699151249094299e-01  5.0713044474047819e-01  5.0727088047670754e-01  5.0741335762227979e-01  5.0755712308045475e-01  5.0769711457300581e-01  5.0781980861350129e-01  5.0788707040475800e-01  5.0774545425937567e-01  5.0717899347336148e-01  5.0453723630712211e-01  5.0060812925111042e-01  4.8335259033466876e-01  4.7298921221943602e-01  5.0418918560489301e-01  7.9931443795662558e-04  2.5134361370982741e+00  8.9713349379547079e-03  3.9432341681770450e-01  4.3690861595435809e-01  4.7659699548604606e-01  4.7619887806376632e-01  4.8958287516396909e-01  4.9519520470304174e-01  4.9776586682830537e-01  4.9881250954990664e-01  4.9929108111977877e-01  4.9957305948836361e-01  4.9979345311651702e-01  4.9999084595858773e-01  5.0017526194317230e-01  5.0034911818612449e-01  5.0051319209191003e-01  5.0066798186326056e-01  5.0081393527667684e-01  5.0095141041241342e-01  5.0108057410370654e-01  5.0120129136459890e-01  5.0131303097699764e-01  5.0141481000365751e-01  5.0150519932597082e-01  5.0158240693382505e-01  5.0164444324912361e-01  5.0168935119473901e-01  5.0171545795195660e-01  5.0172158915794518e-01  5.0170719327874103e-01  5.0167235446070058e-01  5.0161770799825856e-01  5.0154429957368341e-01  5.0145340642597924e-01  5.0134641758753240e-01  5.0122435434118362e-01  5.0108809787000574e-01  5.0093394971616390e-01  5.0075565384145337e-01  5.0050711356702149e-01  5.0007299883581435e-01  4.9914765809731637e-01  4.9634009453724359e-01  4.9233367234815911e-01  4.7474972604874843e-01  4.7364893445087641e-01  4.8803746103368245e-01  -1.9775584626389200e-02  2.4350784589225491e+00  1.2565780667122627e-02  3.9034232168590838e-01  4.4569654669581343e-01  4.8116501486018631e-01  4.7585489598485725e-01  4.9191417709197355e-01  4.9645670481849286e-01  4.9869486805546742e-01  4.9948157316096059e-01  4.9975527025023780e-01  4.9986000254110291e-01  4.9991902384838927e-01  4.9996455247310839e-01  5.0000479128224984e-01  5.0004169117731678e-01  5.0007601629072163e-01  5.0010837109862682e-01  5.0013940485975228e-01  5.0016978953780755e-01  5.0020014092698317e-01  5.0023090858256536e-01  5.0026224900727878e-01  5.0029390374105664e-01  5.0032511889455344e-01  5.0035465111841848e-01  5.0038089813000408e-01  5.0040215382597708e-01  5.0041692760963075e-01  5.0042422164640421e-01  5.0042366998235477e-01  5.0041550929693235e-01  5.0040042148687358e-01  5.0037933166439019e-01  5.0035319937397460e-01  5.0032293391528160e-01  5.0028896930931233e-01  5.0025164337336436e-01  5.0020708926805635e-01  5.0014890109660615e-01  5.0003520384688505e-01  4.9974726950905235e-01  4.9902429287495603e-01  4.9642985853283866e-01  4.9300668161888506e-01  4.7600495438169177e-01  4.7623942289807386e-01  4.9323323210605763e-01  -1.0028502525892441e-02  2.4593391392174597e+00  1.3007419984313390e-02  3.9314029770981501e-01  4.5052565308790193e-01  4.8070701533885601e-01  4.7600477573428090e-01  4.9287847875404289e-01  4.9632667980304612e-01  4.9860492596384132e-01  4.9933658148746946e-01  4.9957630441078843e-01  4.9965942133208857e-01  4.9969778029324941e-01  4.9972300793774443e-01  4.9974355254224551e-01  4.9976184478385810e-01  4.9977895577188136e-01  4.9979574326066528e-01  4.9981316573616652e-01  4.9983229428362541e-01  4.9985422901766019e-01  4.9987992648119317e-01  4.9990996404965604e-01  4.9994427900268623e-01  4.9998195783047272e-01  5.0002118178865629e-01  5.0005943197170322e-01  5.0009396964436070e-01  5.0012245683816037e-01  5.0014346807050192e-01  5.0015668890390796e-01  5.0016277353948047e-01  5.0016299047208335e-01  5.0015883650093296e-01  5.0015171683107706e-01  5.0014281349841350e-01  5.0013270432365176e-01  5.0012172767678997e-01  5.0010611684997719e-01  5.0007953207522959e-01  5.0000082461557893e-01  4.9975462370330792e-01  4.9908161209531982e-01  4.9659254543388076e-01  4.9330343533891652e-01  4.7672338459971003e-01  4.7752139183450837e-01  4.9452675023445147e-01  -7.7554557142383140e-03  2.4603476870959522e+00  1.3341782536634039e-02  3.9525377420617092e-01  4.5159739066686988e-01  4.8083249325590194e-01  4.7694850867261396e-01  4.9332333153511165e-01  4.9636763083797197e-01  4.9882522029410492e-01  4.9949925571273363e-01  4.9972340945395577e-01  4.9979396856322789e-01  4.9981436594376677e-01  4.9982092577786741e-01  4.9982244473582804e-01  4.9982212353215966e-01  4.9982130901272653e-01  4.9982117137245674e-01  4.9982309710195866e-01  4.9982874935752952e-01  4.9983998618508596e-01  4.9985855475898527e-01  4.9988567041376403e-01  4.9992149804147101e-01  4.9996468726585075e-01  5.0001219972013078e-01  5.0005968401055612e-01  5.0010245789161756e-01  5.0013677071213891e-01  5.0016073468440070e-01  5.0017450945884601e-01  5.0017980809728646e-01  5.0017910623343909e-01  5.0017493267772040e-01  5.0016940145948274e-01  5.0016407186503387e-01  5.0015962527899749e-01  5.0015631728497456e-01  5.0015013431091015e-01  5.0013453935063468e-01  5.0006782938789673e-01  4.9983568940454376e-01  4.9917763549460453e-01  4.9671824958711275e-01  4.9347867979490539e-01  4.7701561287375627e-01  4.7814645616965235e-01  4.9507580952035529e-01  -5.5122375211306826e-03  2.4633139939787747e+00  1.3427081654467120e-02  3.9643828444158935e-01  4.5200421547845299e-01  4.8117385504687599e-01  4.7725450605567987e-01  4.9329891425441857e-01  4.9639884838781179e-01  4.9892917910016499e-01  4.9954915543114314e-01  4.9978310273585491e-01  4.9985076191647532e-01  4.9986321951858659e-01  4.9986160569281057e-01  4.9985386214684002e-01  4.9984388691940812e-01  4.9983305732787126e-01  4.9982289435924332e-01  4.9981529859619939e-01  4.9981284405024368e-01  4.9981867674898861e-01  4.9983594285204036e-01  4.9986714104530861e-01  4.9991304574010093e-01  4.9997167169080209e-01  5.0003777152253570e-01  5.0010352271105940e-01  5.0016065184462044e-01  5.0020312589256555e-01  5.0022880584557250e-01  5.0023929120297073e-01  5.0023849710161350e-01  5.0023099685115346e-01  5.0022083881962587e-01  5.0021098466470459e-01  5.0020329052991364e-01  5.0019837068331707e-01  5.0019619640854296e-01  5.0019238257772447e-01  5.0017996077612314e-01  5.0011677747227401e-01  4.9988849755339743e-01  4.9923290021386013e-01  4.9678250925730905e-01  4.9355039116283261e-01  4.7713363896472649e-01  4.7846186454341710e-01  4.9521550294040040e-01  -4.2643820693030422e-03  2.4657259551423589e+00  1.3454098245203777e-02  3.9704748120272865e-01  4.5209969791009758e-01  4.8125385218943567e-01  4.7721211167291844e-01  4.9322115896744401e-01  4.9638844243672492e-01  4.9890782176356324e-01  4.9951822877960944e-01  4.9977215280607773e-01  4.9983972997479365e-01  4.9985222835324333e-01  4.9984983168069369e-01  4.9983933739771386e-01  4.9982507862789483e-01  4.9980820906318640e-01  4.9979056963184099e-01  4.9977452238050840e-01  4.9976414160590199e-01  4.9976461184169579e-01  4.9978154825423277e-01  4.9982023448502405e-01  4.9988305968751406e-01  4.9996732368516034e-01  5.0006370887389340e-01  5.0015750834831241e-01  5.0023363747080529e-01  5.0028267323106523e-01  5.0030347697343924e-01  5.0030146681634036e-01  5.0028491130531683e-01  5.0026174708922577e-01  5.0023793170754383e-01  5.0021710100413197e-01  5.0020099650978100e-01  5.0018973328583616e-01  5.0018266010750623e-01  5.0017480251370083e-01  5.0015872251539506e-01  5.0009182217704184e-01  4.9986002848022254e-01  4.9919905146451149e-01  4.9674748931436069e-01  4.9350883634803905e-01  4.7710605275753321e-01  4.7857108122151287e-01  4.9516732952408871e-01  -3.5133489571312492e-03  2.4676443044672127e+00  1.3453045559064375e-02  3.9739422151487602e-01  4.5216404969982954e-01  4.8131604397894573e-01  4.7719365147814247e-01  4.9321795916397515e-01  4.9639335859045453e-01  4.9890304772328753e-01  4.9952289967652125e-01  4.9978278263450387e-01  4.9984669831781631e-01  4.9985876502589649e-01  4.9985389258174201e-01  4.9983882040235816e-01  4.9981766130983646e-01  4.9979111268345039e-01  4.9976084820757166e-01  4.9972950835608482e-01  4.9970362561049159e-01  4.9969086170957305e-01  4.9970167265107879e-01  4.9974761659352074e-01  4.9983498374743129e-01  4.9996096670633827e-01  5.0010808379770755e-01  5.0024661307525398e-01  5.0034799565424815e-01  5.0039885265104456e-01  5.0040342445511765e-01  5.0037628331183104e-01  5.0033363167409461e-01  5.0028810022364101e-01  5.0024735244508389e-01  5.0021484235358049e-01  5.0019127567267652e-01  5.0017554477947856e-01  5.0016591027444524e-01  5.0015656799027519e-01  5.0013954058455579e-01  5.0007187708147982e-01  4.9983982063263593e-01  4.9917745740464237e-01  4.9672812147564938e-01  4.9348631668739484e-01  4.7709320509736219e-01  4.7866795779991939e-01  4.9513473484350434e-01  -2.9489631018158775e-03  2.4693585705486285e+00  1.3442116158110265e-02  3.9760125607982599e-01  4.5222606844478924e-01  4.8136819639072009e-01  4.7718597032769866e-01  4.9322405955016996e-01  4.9639747483460056e-01  4.9891067808928691e-01  4.9953623755333770e-01  4.9979524379641260e-01  4.9985840786919156e-01  4.9987093858054527e-01  4.9986393383920902e-01  4.9984458331301851e-01  4.9981584960422465e-01  4.9977746183294769e-01  4.9972952518207397e-01  4.9967492624618015e-01  4.9962281723698476e-01  4.9958246121345024e-01  4.9957603261637734e-01  4.9962781975846260e-01  4.9975363625500735e-01  4.9995460836844779e-01  5.0019386946681821e-01  5.0040571557247715e-01  5.0053543130217348e-01  5.0057042494087178e-01  5.0053345245563907e-01  5.0045885835840465e-01  5.0037523852431576e-01  5.0029980088818971e-01  5.0023987269994186e-01  5.0019651398967413e-01  5.0016773449395679e-01  5.0015019206449995e-01  5.0014055168337579e-01  5.0013199547347986e-01  5.0011600405231238e-01  5.0004937365971336e-01  4.9981874224098749e-01  4.9915688004997111e-01  4.9671106613870925e-01  4.9346778305998518e-01  4.7708164567096473e-01  4.7874549990587389e-01  4.9510629088255881e-01  -2.5132017155592638e-03  2.4708285076603977e+00  1.3427358875753147e-02  3.9772350789357364e-01  4.5228545220416588e-01  4.8141044239862057e-01  4.7718310158579486e-01  4.9323331139381954e-01  4.9640582645983067e-01  4.9892406104179393e-01  4.9955126116237142e-01  4.9981080448443416e-01  4.9987604456171836e-01  4.9988994041484108e-01  4.9988256877013765e-01  4.9986068527432215e-01  4.9982536005656053e-01  4.9977398237438775e-01  4.9970282098675828e-01  4.9961465479472689e-01  4.9951682118913288e-01  4.9941979440539103e-01  4.9937466032239031e-01  4.9942435672080743e-01  4.9961438901366051e-01  4.9996421177155459e-01  5.0037939978372459e-01  5.0070479449795502e-01  5.0084267217510714e-01  5.0080963735173167e-01  5.0068042485971087e-01  5.0052506013248610e-01  5.0038513037951105e-01  5.0027678133964282e-01  5.0020109286455960e-01  5.0015266949086856e-01  5.0012461888995563e-01  5.0011042670907624e-01  5.0010492737624479e-01  5.0010037628621906e-01  5.0008790887466958e-01  5.0002428641264807e-01  4.9979666002772105e-01  4.9913684150721271e-01  4.9669542093239699e-01  4.9345203060284659e-01  4.7707148441010538e-01  4.7880844328315059e-01  4.9508192463223716e-01  -2.1603671261098741e-03  2.4720738784293546e+00  1.3411799549638134e-02  3.9778960532041974e-01  4.5233867195345645e-01  4.8144326467890741e-01  4.7718268163825706e-01  4.9324348982628852e-01  4.9641597973043128e-01  4.9893902981364135e-01  4.9956826798697507e-01  4.9983083073181223e-01  4.9989980070897078e-01  4.9991720119794553e-01  4.9991293404836912e-01  4.9989245495820972e-01  4.9985440489049510e-01  4.9979158556451753e-01  4.9969400232670202e-01  4.9956066088400425e-01  4.9938401120305631e-01  4.9918374151323008e-01  4.9906290933608444e-01  4.9907918683190516e-01  4.9939201884949402e-01  5.0006304998694573e-01  5.0080958901948391e-01  5.0126892708165571e-01  5.0130932637723158e-01  5.0108147489519694e-01  5.0077700896369026e-01  5.0050872018403880e-01  5.0031291767245389e-01  5.0018598904878542e-01  5.0011155827176090e-01  5.0007291527894282e-01  5.0005700048258817e-01  5.0005437516394069e-01  5.0005874428449482e-01  5.0006214271834892e-01  5.0005592402351062e-01  4.9999723173811944e-01  4.9977394110555923e-01  4.9911731649524366e-01  4.9668074405846613e-01  4.9343828090705272e-01  4.7706250745329654e-01  4.7885914091390885e-01  4.9506089278063259e-01  -1.8701412939137513e-03  2.4731070475147408e+00  1.3397333999606822e-02  3.9781889310802704e-01  4.5238426917105085e-01  4.8146799049002764e-01  4.7718345259880202e-01  4.9325329790389910e-01  4.9642658585092825e-01  4.9895470384426432e-01  4.9958710843587817e-01  4.9985424093147213e-01  4.9992881223836627e-01  4.9995311281418481e-01  4.9995698921201909e-01  4.9994485369745678e-01  4.9991287005476781e-01  4.9984800768607096e-01  4.9973199892308900e-01  4.9954884835370655e-01  4.9925649779680509e-01  4.9890292484459037e-01  4.9863214486988078e-01  4.9851953312334019e-01  4.9911573100573536e-01  5.0048282570017188e-01  5.0178397493609539e-01  5.0224801387884044e-01  5.0185339609462132e-01  5.0118717911241351e-01  5.0062590814372887e-01  5.0026515291977425e-01  5.0007011894031872e-01  4.9998047140784829e-01  4.9994959659082755e-01  4.9994911060824926e-01  4.9996323363622575e-01  4.9998315457418985e-01  5.0000406342193937e-01  5.0001947639591504e-01  5.0002200687850806e-01  4.9996981004112057e-01  4.9975177390392561e-01  4.9909906167897727e-01  4.9666738684039996e-01  4.9342655782778461e-01  4.7705500444239429e-01  4.7889935590156812e-01  4.9504337063911419e-01  -1.6321434517234715e-03  2.4739379718989336e+00  1.3385355562319099e-02  3.9782569527714184e-01  4.5242135471469791e-01  4.8148579610067610e-01  4.7718473202026829e-01  4.9326215257767525e-01  4.9643676983129231e-01  4.9896990224174231e-01  4.9960608463803258e-01  4.9987879913197986e-01  4.9996088539833666e-01  4.9999561462477748e-01  5.0001358619751801e-01  5.0001976484210786e-01  5.0000970639732700e-01  4.9996683140357429e-01  4.9986326014139559e-01  4.9965291825402552e-01  4.9924618670942483e-01  4.9872114782573901e-01  4.9814283086607425e-01  4.9771246371551164e-01  4.9901337180496691e-01  5.0174582056956518e-01  5.0373791547573232e-01  5.0360785017888077e-01  5.0199834541095334e-01  5.0059580226258227e-01  4.9982638770240717e-01  4.9955858883698151e-01  4.9954078176246269e-01  4.9961316589495652e-01  4.9970186724256044e-01  4.9978191454392346e-01  4.9984851476289566e-01  4.9990256197226596e-01  4.9994593121428371e-01  4.9997637986616533e-01  4.9998918825639221e-01  4.9994423893832113e-01  4.9973170381343746e-01  4.9908305882391141e-01  4.9665585760742703e-01  4.9341699709497328e-01  4.7704917910195843e-01  4.7893006986864350e-01  4.9502961480282204e-01  -1.4424075147652022e-03  2.4745742120950029e+00  1.3377029766543817e-02  3.9782096541127482e-01  4.5244920587957754e-01  4.8149757045852493e-01  4.7718594689614519e-01  4.9326945416764689e-01  4.9644541350815669e-01  4.9898292335943667e-01  4.9962277452660547e-01  4.9990120673246369e-01  4.9999156511598952e-01  5.0003871235560982e-01  5.0007528593928807e-01  5.0010924541753543e-01  5.0013970416858311e-01  5.0015301418563085e-01  5.0011728601303307e-01  4.9996379012225761e-01  4.9957752149478041e-01  4.9901360622235919e-01  4.9801117131584050e-01  4.9708871965430385e-01  4.9963145750312088e-01  5.0434343952044669e-01  5.0687974997819052e-01  5.0482943161897820e-01  5.0047243896242610e-01  4.9833354815880976e-01  4.9790351547070327e-01  4.9818710236003755e-01  4.9866833808322136e-01  4.9908674703709810e-01  4.9938832512753389e-01  4.9959200411124000e-01  4.9972938563130531e-01  4.9982460267001638e-01  4.9989271261073542e-01  4.9993859466341739e-01  4.9996139158856190e-01  4.9992318554339121e-01  4.9971550658541575e-01  4.9907042402150553e-01  4.9664676601625951e-01  4.9340982206141570e-01  4.7704523065141774e-01  4.7895185038079524e-01  4.9502002382548937e-01  -1.3001832465812351e-03  2.4750212186927700e+00  1.3373350689131218e-02  3.9781265931292115e-01  4.5246716539050974e-01  4.8150396204809204e-01  4.7718665401776983e-01  4.9327469712985234e-01  4.9645148424567048e-01  4.9899207154215602e-01  4.9963454037336424e-01  4.9991737435004296e-01  5.0001444951275598e-01  5.0007229251467877e-01  5.0012602407748463e-01  5.0018778366336514e-01  5.0026317737407766e-01  5.0034795845715396e-01  5.0042116324863706e-01  5.0042983668650454e-01  5.0028773884241917e-01  4.9997082699153977e-01  4.9883346102957649e-01  4.9755823518773545e-01  5.0124082833345329e-01  5.0745946812901388e-01  5.0990801336116276e-01  5.0521472091065089e-01  4.9629321080110583e-01  4.9347328069697266e-01  4.9474953099859431e-01  4.9635861238887252e-01  4.9765184667184004e-01  4.9854075105349188e-01  4.9909564652417204e-01  4.9943063906237856e-01  4.9963577849540192e-01  4.9976691997964268e-01  4.9985502769819468e-01  4.9991267960091246e-01  4.9994276856005060e-01  4.9990932457373127e-01  4.9970490794375283e-01  4.9906223529546556e-01  4.9664072902154494e-01  4.9340530547452699e-01  4.7704338562246368e-01  4.7896506520727178e-01  4.9501503060861024e-01  -1.2059709331228477e-03  2.4752827890849511e+00  1.3375127018075467e-02  3.9780563723464069e-01  4.5247465122117780e-01  4.8150535857207200e-01  4.7718652107754739e-01  4.9327749165730855e-01  4.9645418339656788e-01  4.9899597968273335e-01  4.9963914088299538e-01  4.9992359130438829e-01  5.0002326838373057e-01  5.0008544454155712e-01  5.0014627015737789e-01  5.0021969095749785e-01  5.0031429033011932e-01  5.0043079408701818e-01  5.0055688057567616e-01  5.0065632973454155e-01  5.0066061057473399e-01  5.0046744692740741e-01  4.9950948275646528e-01  4.9818435029781094e-01  5.0225651825468465e-01  5.1003313970830388e-01  5.1071522764333110e-01  5.0517258921412411e-01  4.9381120836442571e-01  4.8897780403240559e-01  4.9209515848783264e-01  4.9516221686147938e-01  4.9709655194054597e-01  4.9828209024071568e-01  4.9897252121570490e-01  4.9936920786263039e-01  4.9960258346166586e-01  4.9974725922621932e-01  4.9984239125363822e-01  4.9990402608882051e-01  4.9993652647325537e-01  4.9990463270035340e-01  4.9970114501182661e-01  4.9905924741870616e-01  4.9663817829916251e-01  4.9340363346412364e-01  4.7704380631036547e-01  4.7