<?xml version="1.0"?>
<VTKFile type="UnstructuredGrid"  version="0.1"  >
<UnstructuredGrid>
<Piece  NumberOfPoints="1617" NumberOfCells="3072">
<Points>
<DataArray  type="Float64"  NumberOfComponents="3"  format="ascii">0 0 0  0.03125 0 0  0.0625 0 0  0.09375 0 0  0.125 0 0  0.15625 0 0  0.1875 0 0  0.21875 0 0  0.25 0 0  0.28125 0 0  0.3125 0 0  0.34375 0 0  0.375 0 0  0.40625 0 0  0.4375 0 0  0.46875 0 0  0.5 0 0  0.53125 0 0  0.5625 0 0  0.59375 0 0  0.625 0 0  0.65625 0 0  0.6875 0 0  0.71875 0 0  0.75 0 0  0.78125 0 0  0.8125 0 0  0.84375 0 0  0.875 0 0  0.90625 0 0  0.9375 0 0  0.96875 0 0  1 0 0  1.03125 0 0  1.0625 0 0  1.09375 0 0  1.125 0 0  1.15625 0 0  1.1875 0 0  1.21875 0 0  1.25 0 0  1.28125 0 0  1.3125 0 0  1.34375 0 0  1.375 0 0  1.40625 0 0  1.4375 0 0  1.46875 0 0  1.5 0 0  0 0.03125 0  0.03125 0.03125 0  0.0625 0.03125 0  0.09375 0.03125 0  0.125 0.03125 0  0.15625 0.03125 0  0.1875 0.03125 0  0.21875 0.03125 0  0.25 0.03125 0  0.28125 0.03125 0  0.3125 0.03125 0  0.34375 0.03125 0  0.375 0.03125 0  0.40625 0.03125 0  0.4375 0.03125 0  0.46875 0.03125 0  0.5 0.03125 0  0.53125 0.03125 0  0.5625 0.03125 0  0.59375 0.03125 0  0.625 0.03125 0  0.65625 0.03125 0  0.6875 0.03125 0  0.71875 0.03125 0  0.75 0.03125 0  0.78125 0.03125 0  0.8125 0.03125 0  0.84375 0.03125 0  0.875 0.03125 0  0.90625 0.03125 0  0.9375 0.03125 0  0.96875 0.03125 0  1 0.03125 0  1.03125 0.03125 0  1.0625 0.03125 0  1.09375 0.03125 0  1.125 0.03125 0  1.15625 0.03125 0  1.1875 0.03125 0  1.21875 0.03125 0  1.25 0.03125 0  1.28125 0.03125 0  1.3125 0.03125 0  1.34375 0.03125 0  1.375 0.03125 0  1.40625 0.03125 0  1.4375 0.03125 0  1.46875 0.03125 0  1.5 0.03125 0  0 0.0625 0  0.03125 0.0625 0  0.0625 0.0625 0  0.09375 0.0625 0  0.125 0.0625 0  0.15625 0.0625 0  0.1875 0.0625 0  0.21875 0.0625 0  0.25 0.0625 0  0.28125 0.0625 0  0.3125 0.0625 0  0.34375 0.0625 0  0.375 0.0625 0  0.40625 0.0625 0  0.4375 0.0625 0  0.46875 0.0625 0  0.5 0.0625 0  0.53125 0.0625 0  0.5625 0.0625 0  0.59375 0.0625 0  0.625 0.0625 0  0.65625 0.0625 0  0.6875 0.0625 0  0.71875 0.0625 0  0.75 0.0625 0  0.78125 0.0625 0  0.8125 0.0625 0  0.84375 0.0625 0  0.875 0.0625 0  0.90625 0.0625 0  0.9375 0.0625 0  0.96875 0.0625 0  1 0.0625 0  1.03125 0.0625 0  1.0625 0.0625 0  1.09375 0.0625 0  1.125 0.0625 0  1.15625 0.0625 0  1.1875 0.0625 0  1.21875 0.0625 0  1.25 0.0625 0  1.28125 0.0625 0  1.3125 0.0625 0  1.34375 0.0625 0  1.375 0.0625 0  1.40625 0.0625 0  1.4375 0.0625 0  1.46875 0.0625 0  1.5 0.0625 0  0 0.09375 0  0.03125 0.09375 0  0.0625 0.09375 0  0.09375 0.09375 0  0.125 0.09375 0  0.15625 0.09375 0  0.1875 0.09375 0  0.21875 0.09375 0  0.25 0.09375 0  0.28125 0.09375 0  0.3125 0.09375 0  0.34375 0.09375 0  0.375 0.09375 0  0.40625 0.09375 0  0.4375 0.09375 0  0.46875 0.09375 0  0.5 0.09375 0  0.53125 0.09375 0  0.5625 0.09375 0  0.59375 0.09375 0  0.625 0.09375 0  0.65625 0.09375 0  0.6875 0.09375 0  0.71875 0.09375 0  0.75 0.09375 0  0.78125 0.09375 0  0.8125 0.09375 0  0.84375 0.09375 0  0.875 0.09375 0  0.90625 0.09375 0  0.9375 0.09375 0  0.96875 0.09375 0  1 0.09375 0  1.03125 0.09375 0  1.0625 0.09375 0  1.09375 0.09375 0  1.125 0.09375 0  1.15625 0.09375 0  1.1875 0.09375 0  1.21875 0.09375 0  1.25 0.09375 0  1.28125 0.09375 0  1.3125 0.09375 0  1.34375 0.09375 0  1.375 0.09375 0  1.40625 0.09375 0  1.4375 0.09375 0  1.46875 0.09375 0  1.5 0.09375 0  0 0.125 0  0.03125 0.125 0  0.0625 0.125 0  0.09375 0.125 0  0.125 0.125 0  0.15625 0.125 0  0.1875 0.125 0  0.21875 0.125 0  0.25 0.125 0  0.28125 0.125 0  0.3125 0.125 0  0.34375 0.125 0  0.375 0.125 0  0.40625 0.125 0  0.4375 0.125 0  0.46875 0.125 0  0.5 0.125 0  0.53125 0.125 0  0.5625 0.125 0  0.59375 0.125 0  0.625 0.125 0  0.65625 0.125 0  0.6875 0.125 0  0.71875 0.125 0  0.75 0.125 0  0.78125 0.125 0  0.8125 0.125 0  0.84375 0.125 0  0.875 0.125 0  0.90625 0.125 0  0.9375 0.125 0  0.96875 0.125 0  1 0.125 0  1.03125 0.125 0  1.0625 0.125 0  1.09375 0.125 0  1.125 0.125 0  1.15625 0.125 0  1.1875 0.125 0  1.21875 0.125 0  1.25 0.125 0  1.28125 0.125 0  1.3125 0.125 0  1.34375 0.125 0  1.375 0.125 0  1.40625 0.125 0  1.4375 0.125 0  1.46875 0.125 0  1.5 0.125 0  0 0.15625 0  0.03125 0.15625 0  0.0625 0.15625 0  0.09375 0.15625 0  0.125 0.15625 0  0.15625 0.15625 0  0.1875 0.15625 0  0.21875 0.15625 0  0.25 0.15625 0  0.28125 0.15625 0  0.3125 0.15625 0  0.34375 0.15625 0  0.375 0.15625 0  0.40625 0.15625 0  0.4375 0.15625 0  0.46875 0.15625 0  0.5 0.15625 0  0.53125 0.15625 0  0.5625 0.15625 0  0.59375 0.15625 0  0.625 0.15625 0  0.65625 0.15625 0  0.6875 0.15625 0  0.71875 0.15625 0  0.75 0.15625 0  0.78125 0.15625 0  0.8125 0.15625 0  0.84375 0.15625 0  0.875 0.15625 0  0.90625 0.15625 0  0.9375 0.15625 0  0.96875 0.15625 0  1 0.15625 0  1.03125 0.15625 0  1.0625 0.15625 0  1.09375 0.15625 0  1.125 0.15625 0  1.15625 0.15625 0  1.1875 0.15625 0  1.21875 0.15625 0  1.25 0.15625 0  1.28125 0.15625 0  1.3125 0.15625 0  1.34375 0.15625 0  1.375 0.15625 0  1.40625 0.15625 0  1.4375 0.15625 0  1.46875 0.15625 0  1.5 0.15625 0  0 0.1875 0  0.03125 0.1875 0  0.0625 0.1875 0  0.09375 0.1875 0  0.125 0.1875 0  0.15625 0.1875 0  0.1875 0.1875 0  0.21875 0.1875 0  0.25 0.1875 0  0.28125 0.1875 0  0.3125 0.1875 0  0.34375 0.1875 0  0.375 0.1875 0  0.40625 0.1875 0  0.4375 0.1875 0  0.46875 0.1875 0  0.5 0.1875 0  0.53125 0.1875 0  0.5625 0.1875 0  0.59375 0.1875 0  0.625 0.1875 0  0.65625 0.1875 0  0.6875 0.1875 0  0.71875 0.1875 0  0.75 0.1875 0  0.78125 0.1875 0  0.8125 0.1875 0  0.84375 0.1875 0  0.875 0.1875 0  0.90625 0.1875 0  0.9375 0.1875 0  0.96875 0.1875 0  1 0.1875 0  1.03125 0.1875 0  1.0625 0.1875 0  1.09375 0.1875 0  1.125 0.1875 0  1.15625 0.1875 0  1.1875 0.1875 0  1.21875 0.1875 0  1.25 0.1875 0  1.28125 0.1875 0  1.3125 0.1875 0  1.34375 0.1875 0  1.375 0.1875 0  1.40625 0.1875 0  1.4375 0.1875 0  1.46875 0.1875 0  1.5 0.1875 0  0 0.21875 0  0.03125 0.21875 0  0.0625 0.21875 0  0.09375 0.21875 0  0.125 0.21875 0  0.15625 0.21875 0  0.1875 0.21875 0  0.21875 0.21875 0  0.25 0.21875 0  0.28125 0.21875 0  0.3125 0.21875 0  0.34375 0.21875 0  0.375 0.21875 0  0.40625 0.21875 0  0.4375 0.21875 0  0.46875 0.21875 0  0.5 0.21875 0  0.53125 0.21875 0  0.5625 0.21875 0  0.59375 0.21875 0  0.625 0.21875 0  0.65625 0.21875 0  0.6875 0.21875 0  0.71875 0.21875 0  0.75 0.21875 0  0.78125 0.21875 0  0.8125 0.21875 0  0.84375 0.21875 0  0.875 0.21875 0  0.90625 0.21875 0  0.9375 0.21875 0  0.96875 0.21875 0  1 0.21875 0  1.03125 0.21875 0  1.0625 0.21875 0  1.09375 0.21875 0  1.125 0.21875 0  1.15625 0.21875 0  1.1875 0.21875 0  1.21875 0.21875 0  1.25 0.21875 0  1.28125 0.21875 0  1.3125 0.21875 0  1.34375 0.21875 0  1.375 0.21875 0  1.40625 0.21875 0  1.4375 0.21875 0  1.46875 0.21875 0  1.5 0.21875 0  0 0.25 0  0.03125 0.25 0  0.0625 0.25 0  0.09375 0.25 0  0.125 0.25 0  0.15625 0.25 0  0.1875 0.25 0  0.21875 0.25 0  0.25 0.25 0  0.28125 0.25 0  0.3125 0.25 0  0.34375 0.25 0  0.375 0.25 0  0.40625 0.25 0  0.4375 0.25 0  0.46875 0.25 0  0.5 0.25 0  0.53125 0.25 0  0.5625 0.25 0  0.59375 0.25 0  0.625 0.25 0  0.65625 0.25 0  0.6875 0.25 0  0.71875 0.25 0  0.75 0.25 0  0.78125 0.25 0  0.8125 0.25 0  0.84375 0.25 0  0.875 0.25 0  0.90625 0.25 0  0.9375 0.25 0  0.96875 0.25 0  1 0.25 0  1.03125 0.25 0  1.0625 0.25 0  1.09375 0.25 0  1.125 0.25 0  1.15625 0.25 0  1.1875 0.25 0  1.21875 0.25 0  1.25 0.25 0  1.28125 0.25 0  1.3125 0.25 0  1.34375 0.25 0  1.375 0.25 0  1.40625 0.25 0  1.4375 0.25 0  1.46875 0.25 0  1.5 0.25 0  0 0.28125 0  0.03125 0.28125 0  0.0625 0.28125 0  0.09375 0.28125 0  0.125 0.28125 0  0.15625 0.28125 0  0.1875 0.28125 0  0.21875 0.28125 0  0.25 0.28125 0  0.28125 0.28125 0  0.3125 0.28125 0  0.34375 0.28125 0  0.375 0.28125 0  0.40625 0.28125 0  0.4375 0.28125 0  0.46875 0.28125 0  0.5 0.28125 0  0.53125 0.28125 0  0.5625 0.28125 0  0.59375 0.28125 0  0.625 0.28125 0  0.65625 0.28125 0  0.6875 0.28125 0  0.71875 0.28125 0  0.75 0.28125 0  0.78125 0.28125 0  0.8125 0.28125 0  0.84375 0.28125 0  0.875 0.28125 0  0.90625 0.28125 0  0.9375 0.28125 0  0.96875 0.28125 0  1 0.28125 0  1.03125 0.28125 0  1.0625 0.28125 0  1.09375 0.28125 0  1.125 0.28125 0  1.15625 0.28125 0  1.1875 0.28125 0  1.21875 0.28125 0  1.25 0.28125 0  1.28125 0.28125 0  1.3125 0.28125 0  1.34375 0.28125 0  1.375 0.28125 0  1.40625 0.28125 0  1.4375 0.28125 0  1.46875 0.28125 0  1.5 0.28125 0  0 0.3125 0  0.03125 0.3125 0  0.0625 0.3125 0  0.09375 0.3125 0  0.125 0.3125 0  0.15625 0.3125 0  0.1875 0.3125 0  0.21875 0.3125 0  0.25 0.3125 0  0.28125 0.3125 0  0.3125 0.3125 0  0.34375 0.3125 0  0.375 0.3125 0  0.40625 0.3125 0  0.4375 0.3125 0  0.46875 0.3125 0  0.5 0.3125 0  0.53125 0.3125 0  0.5625 0.3125 0  0.59375 0.3125 0  0.625 0.3125 0  0.65625 0.3125 0  0.6875 0.3125 0  0.71875 0.3125 0  0.75 0.3125 0  0.78125 0.3125 0  0.8125 0.3125 0  0.84375 0.3125 0  0.875 0.3125 0  0.90625 0.3125 0  0.9375 0.3125 0  0.96875 0.3125 0  1 0.3125 0  1.03125 0.3125 0  1.0625 0.3125 0  1.09375 0.3125 0  1.125 0.3125 0  1.15625 0.3125 0  1.1875 0.3125 0  1.21875 0.3125 0  1.25 0.3125 0  1.28125 0.3125 0  1.3125 0.3125 0  1.34375 0.3125 0  1.375 0.3125 0  1.40625 0.3125 0  1.4375 0.3125 0  1.46875 0.3125 0  1.5 0.3125 0  0 0.34375 0  0.03125 0.34375 0  0.0625 0.34375 0  0.09375 0.34375 0  0.125 0.34375 0  0.15625 0.34375 0  0.1875 0.34375 0  0.21875 0.34375 0  0.25 0.34375 0  0.28125 0.34375 0  0.3125 0.34375 0  0.34375 0.34375 0  0.375 0.34375 0  0.40625 0.34375 0  0.4375 0.34375 0  0.46875 0.34375 0  0.5 0.34375 0  0.53125 0.34375 0  0.5625 0.34375 0  0.59375 0.34375 0  0.625 0.34375 0  0.65625 0.34375 0  0.6875 0.34375 0  0.71875 0.34375 0  0.75 0.34375 0  0.78125 0.34375 0  0.8125 0.34375 0  0.84375 0.34375 0  0.875 0.34375 0  0.90625 0.34375 0  0.9375 0.34375 0  0.96875 0.34375 0  1 0.34375 0  1.03125 0.34375 0  1.0625 0.34375 0  1.09375 0.34375 0  1.125 0.34375 0  1.15625 0.34375 0  1.1875 0.34375 0  1.21875 0.34375 0  1.25 0.34375 0  1.28125 0.34375 0  1.3125 0.34375 0  1.34375 0.34375 0  1.375 0.34375 0  1
[...]
<PointData  Scalars="f_81"> 
<DataArray  type="Float64"  Name="f_81"  format="ascii">3.2838035048256464e-01  6.8884731665984522e-01  6.7849637436689980e-01  6.7831194382927340e-01  6.8051433586778642e-01  6.8004078650411881e-01  6.7740641206360575e-01  6.7296300352568328e-01  6.6695505258756382e-01  6.5972441285022765e-01  6.5162820240661234e-01  6.4298214499758910e-01  6.3403321809746105e-01  6.2495515400049528e-01  6.1585937950311676e-01  6.0681147675663816e-01  5.9784667350409959e-01  5.8898147692619229e-01  5.8022115997476242e-01  5.7156404220154011e-01  5.6300378071821100e-01  5.5453069161464097e-01  5.4613279047397845e-01  5.3779692611124652e-01  5.2951012560754462e-01  5.2126107539477551e-01  5.1304153510413153e-01  5.0484743256203535e-01  4.9667942263622561e-01  4.8854277597116541e-01  4.8044663318553171e-01  4.7240248444470451e-01  4.6442247351566518e-01  4.5651516678841286e-01  4.4868462890019750e-01  4.4091106137333008e-01  4.3317375656678075e-01  4.2532793011124909e-01  4.1739377931955429e-01  4.0862238125315919e-01  4.0014193665562825e-01  3.8731168292789825e-01  3.8168818383489483e-01  3.4830406481484671e-01  3.8483537470334622e-01  2.1821002143105508e-01  5.4136819691415550e-01  -2.6835911671118995e-01  1.3726174548687879e+00  1.6644800106645888e-01  4.9302405576901859e-01  4.3888550290013001e-01  4.2645664232348562e-01  4.4116581781275344e-01  4.5367084544453012e-01  4.6351763046150629e-01  4.7134278020227993e-01  4.7734959041927505e-01  4.8188345736772753e-01  4.8532342517839899e-01  4.8801300264736708e-01  4.9022434137517512e-01  4.9215098898740350e-01  4.9391873455955171e-01  4.9560363545494290e-01  4.9724940859693728e-01  4.9888058508580096e-01  5.0051089900714529e-01  5.0214787116184767e-01  5.0379491757540296e-01  5.0545212935034800e-01  5.0711653312940097e-01  5.0878233166929943e-01  5.1044138171251530e-01  5.1208397888882307e-01  5.1369987468922196e-01  5.1527935358429588e-01  5.1681416323288987e-01  5.1829810067913140e-01  5.1972713631783385e-01  5.2109885044894177e-01  5.2241124552657425e-01  5.2365949959912539e-01  5.2483257268991668e-01  5.2589945791679138e-01  5.2680963236681200e-01  5.2742926235141552e-01  5.2764396897621513e-01  5.2696779680902717e-01  5.2560989421564419e-01  5.2142105647578973e-01  5.1869875187075254e-01  5.0378280126517705e-01  5.1369018593898830e-01  4.4410918002615662e-01  5.7138208088622211e-01  1.7264061968230143e-01  1.7842580454774841e+00  2.1555897033710195e-01  5.4108263835367998e-01  4.8051151216420501e-01  4.5855225835296359e-01  4.7552152270796977e-01  4.8602582782203846e-01  4.9375930515912897e-01  4.9966632393590554e-01  5.0385532717751025e-01  5.0658298621644537e-01  5.0819842150594652e-01  5.0904370610588068e-01  5.0939957477059761e-01  5.0946986221076085e-01  5.0938793637359192e-01  5.0923367350064486e-01  5.0905139479162431e-01  5.0886410056791820e-01  5.0868292708085960e-01  5.0851261538103332e-01  5.0835431335200842e-01  5.0820688049289231e-01  5.0806750067382234e-01  5.0793207541017926e-01  5.0779563344680978e-01  5.0765283830036390e-01  5.0749857144642374e-01  5.0732850121940787e-01  5.0713951477460673e-01  5.0692989201764882e-01  5.0669914195860155e-01  5.0644730003109351e-01  5.0617371611458806e-01  5.0587381127736308e-01  5.0553596042654436e-01  5.0512717395975815e-01  5.0459689730762958e-01  5.0380580438416778e-01  5.0266199096281017e-01  5.0064522951711810e-01  4.9816829210228153e-01  4.9269032882745256e-01  4.9010343378250598e-01  4.7269882593231921e-01  4.9022638119729117e-01  4.0556028975267977e-01  5.7488524143878927e-01  1.4986453965999805e-01  1.6289905954623329e+00  2.1528029250531350e-01  5.3485608684442176e-01  4.7335017646481703e-01  4.4959232478067701e-01  4.6848648077089244e-01  4.7708047220598787e-01  4.8462880256397506e-01  4.9059722384324717e-01  4.9503165860456017e-01  4.9805639597220908e-01  4.9998926441311115e-01  5.0115384420491105e-01  5.0182338107691171e-01  5.0220020462331338e-01  5.0241816131641992e-01  5.0255790100904796e-01  5.0266431902802033e-01  5.0276084985148173e-01  5.0285910640058917e-01  5.0296446443919651e-01  5.0307885916482331e-01  5.0320198613677525e-01  5.0333175737589397e-01  5.0346455299742932e-01  5.0359557220315554e-01  5.0371940771146262e-01  5.0383080817571579e-01  5.0392546206495958e-01  5.0400057561800493e-01  5.0405504909313481e-01  5.0408917768690154e-01  5.0410372904890854e-01  5.0409851932583816e-01  5.0406897845925380e-01  5.0400293258884665e-01  5.0386629964085683e-01  5.0360694361721692e-01  5.0308531723602712e-01  5.0220902792445643e-01  5.0047398134455467e-01  4.9828943571302348e-01  4.9323542249638458e-01  4.9101486782961762e-01  4.7480753765361911e-01  4.9219929328331719e-01  4.1143245165071146e-01  5.7753031667063104e-01  1.5101334466065591e-01  1.6642950596048971e+00  2.1761223671470681e-01  5.3749552461531791e-01  4.7600647623277414e-01  4.5121104009429835e-01  4.6949221222880644e-01  4.7647150921126574e-01  4.8401353704522249e-01  4.8972577501983616e-01  4.9405742659181423e-01  4.9700205804860037e-01  4.9888340480514204e-01  5.0000404287955147e-01  5.0063050460844094e-01  5.0096272633996686e-01  5.0113407214503736e-01  5.0122529063533838e-01  5.0128149741039996e-01  5.0132643073910033e-01  5.0137213905929234e-01  5.0142455661821350e-01  5.0148620300306701e-01  5.0155721542520471e-01  5.0163559762309129e-01  5.0171732190845519e-01  5.0179668382751363e-01  5.0186710009618885e-01  5.0192228115619331e-01  5.0195745483595700e-01  5.0197019914135876e-01  5.0196056466443784e-01  5.0193046034514377e-01  5.0188232898192175e-01  5.0181738013968691e-01  5.0173200694268083e-01  5.0161453480688500e-01  5.0143128208531462e-01  5.0113071051310676e-01  5.0057571436541759e-01  4.9967912721100260e-01  4.9794897141368510e-01  4.9581664941446568e-01  4.9088673926201409e-01  4.8893764882616325e-01  4.7306694905568969e-01  4.9118067244098296e-01  4.1095847667694507e-01  5.7775385777938115e-01  1.5428512360340482e-01  1.6613596880674817e+00  2.1885484678156117e-01  5.3967033394474251e-01  4.7760217223406271e-01  4.5214609606334294e-01  4.6976495269462437e-01  4.7619718348557327e-01  4.8374522013137239e-01  4.8915255225205007e-01  4.9338494674289202e-01  4.9624448463092780e-01  4.9808124044611718e-01  4.9916854691796692e-01  4.9976891620631025e-01  5.0007823469972068e-01  5.0022837746952142e-01  5.0029965760490736e-01  5.0033743406781162e-01  5.0036626198205847e-01  5.0039942269212656e-01  5.0044431065815520e-01  5.0050482797091744e-01  5.0058197734244125e-01  5.0067360539276717e-01  5.0077416419634468e-01  5.0087509446012479e-01  5.0096619656172769e-01  5.0103783499730359e-01  5.0108324011813521e-01  5.0109991045106828e-01  5.0108954036606324e-01  5.0105666773395441e-01  5.0100650948159298e-01  5.0094258655819646e-01  5.0086288741335416e-01  5.0075665907626232e-01  5.0059080146104373e-01  5.0031446693408466e-01  4.9979240714236317e-01  4.9894120120448499e-01  4.9727722368109134e-01  4.9524337185494832e-01  4.9046627949466048e-01  4.8873029152705971e-01  4.7319394403725751e-01  4.9162170072582523e-01  4.1199593431503378e-01  5.7898865450198878e-01  1.5643660673554699e-01  1.6658908880416785e+00  2.1990453775448612e-01  5.4140879081163273e-01  4.7872958303536067e-01  4.5282144499623206e-01  4.7010547036959055e-01  4.7635079622862142e-01  4.8376416581817783e-01  4.8896946724057666e-01  4.9315996530245876e-01  4.9596483951659992e-01  4.9777785153777404e-01  4.9884414951603356e-01  4.9942818210796380e-01  4.9972145152238778e-01  4.9985512650549296e-01  4.9990933633593482e-01  4.9993013974178041e-01  4.9994366354102387e-01  4.9996530078606249e-01  5.0000506144843182e-01  5.0006941111835468e-01  5.0016104040269238e-01  5.0027759999541810e-01  5.0041073272110870e-01  5.0054642195631649e-01  5.0066753072510761e-01  5.0075822223827560e-01  5.0080850684745648e-01  5.0081652217888850e-01  5.0078759589371180e-01  5.0073113198810626e-01  5.0065686047841429e-01  5.0057158482581332e-01  5.0047518849513817e-01  5.0035767429837752e-01  5.0018613380296395e-01  4.9990974114884618e-01  4.9939430098267334e-01  4.9855817442713968e-01  4.9692392725212331e-01  4.9493952394827689e-01  4.9024945623631344e-01  4.8863432461836970e-01  4.7330031007579226e-01  4.9191224910184189e-01  4.1271288529249628e-01  5.7972891483907618e-01  1.5841950550608982e-01  1.6682995133685943e+00  2.2069432187132779e-01  5.4276093293555827e-01  4.7960441328270043e-01  4.5340957696710493e-01  4.7050583362194220e-01  4.7659637305892549e-01  4.8387098314102178e-01  4.8898273554157168e-01  4.9314307940439539e-01  4.9590635856330278e-01  4.9770185129589706e-01  4.9875032082382831e-01  4.9931968760823758e-01  4.9959634118259955e-01  4.9971158694040774e-01  4.9974507710696342e-01  4.9974421709684963e-01  4.9973747027580395e-01  4.9974342458557258e-01  4.9977688687006644e-01  4.9984906754257813e-01  4.9996623857587108e-01  5.0012631715298494e-01  5.0031620506781860e-01  5.0051175302990314e-01  5.0068269357193551e-01  5.0080207774567254e-01  5.0085566247742330e-01  5.0084508870759792e-01  5.0078391710838444e-01  5.0069048787225268e-01  5.0058147606227965e-01  5.0046776570054619e-01  5.0035082826325561e-01  5.0022058337938702e-01  5.0004330657778517e-01  4.9976717394839310e-01  4.9925787505943031e-01  4.9843411080732447e-01  4.9682234887636806e-01  4.9487276051039464e-01  4.9024382038398923e-01  4.8870828713202136e-01  4.7352184504202643e-01  4.9224799604239983e-01  4.1338956500179747e-01  5.8039900549755408e-01  1.6015490413126979e-01  1.6706111993612802e+00  2.2129057482266390e-01  5.4377136790827874e-01  4.8024025209171184e-01  4.5383508305275633e-01  4.7078929445621281e-01  4.7675783237062719e-01  4.8395292548799701e-01  4.8901942975995832e-01  4.9315304517909730e-01  4.9589431317174143e-01  4.9768251391652246e-01  4.9872151047962315e-01  4.9928158319369936e-01  4.9954438690787017e-01  4.9964180527238683e-01  4.9965190371568974e-01  4.9962484622499015e-01  4.9959100422175901e-01  4.9957413651177246e-01  4.9959777988347581e-01  4.9968100549535988e-01  4.9983808953873637e-01  5.0006862816899988e-01  5.0035161476784773e-01  5.0064362613928481e-01  5.0088868823195076e-01  5.0104011119495018e-01  5.0108054629230470e-01  5.0102376580061936e-01  5.0090127179382549e-01  5.0074678126295591e-01  5.0058628637533276e-01  5.0043426101197164e-01  5.0029196100187767e-01  5.0014719874571512e-01  4.9996371758287922e-01  4.9968736962803240e-01  4.9918269493879402e-01  4.9836761382144407e-01  4.9677134570854392e-01  4.9484414167250657e-01  4.9025727735614127e-01  4.8877264117650104e-01  4.7369576955769249e-01  4.9249417683265512e-01  4.1391657140450433e-01  5.8089307442667060e-01  1.6158186329066684e-01  1.6724455475730862e+00  2.2173497013878513e-01  5.4452049839258276e-01  4.8070591342539959e-01  4.5413685688689787e-01  4.7098167235434302e-01  4.7686575387768609e-01  4.8401322355754323e-01  4.8904708802239527e-01  4.9316255265630166e-01  4.9589563584565527e-01  4.9768165308559681e-01  4.9871615925603063e-01  4.9926955407668810e-01  4.9951949955289920e-01  4.9959763645500627e-01  4.9957867760827712e-01  4.9951789895263043e-01  4.9944300535219671e-01  4.9938987035080368e-01  4.9939408848694145e-01  4.9948717683472166e-01  4.9970338013618637e-01  5.0004566241816062e-01  5.0048101801311229e-01  5.0092763058173329e-01  5.0127595801480018e-01  5.0144532565884370e-01  5.0142636057643830e-01  5.0126789197048915e-01  5.0103743183846405e-01  5.0079157927030482e-01  5.0056506200523709e-01  5.0037168955872946e-01  5.0020774916716981e-01  5.0005517390903054e-01  4.9987270020079538e-01  4.9960244478062948e-01  4.9910702735406215e-01  4.9830307349763664e-01  4.9672193670972903e-01  4.9481310368076026e-01  4.9025947039352863e-01  4.8881119956681446e-01  4.7382154784504471e-01  4.9266890181601364e-01  4.1432667093176029e-01  5.8126092027810827e-01  1.6276014869160843e-01  1.6739262213550412e+00  2.2206522708602908e-01  5.4507409534805573e-01  4.8104907800111518e-01  4.5435176387061382e-01  4.7111443998538083e-01  4.7693882711756447e-01  4.8405357125399900e-01  4.8906452195687566e-01  4.9317179101375963e-01  4.9590358173419780e-01  4.9769082489954586e-01  4.9872511478949805e-01  4.9927484071676442e-01  4.9951414316035198e-01  4.9957244851374316e-01  4.9951981694084818e-01  4.9941799834319939e-01  4.9928098842577667e-01  4.9917715361877640e-01  4.9914060068032462e-01  4.9923509391719789e-01  4.9953983390397161e-01  5.0005719274362681e-01  5.0074865917773759e-01  5.0144590648616461e-01  5.0191902624852525e-01  5.0203799824038686e-01  5.0184851359565008e-01  5.0148785611555580e-01  5.0108529661195100e-01  5.0072106945559280e-01  5.0042803769706856e-01  5.0020734661773258e-01  5.0004122293870712e-01  4.9990024339584138e-01  4.9973550213546786e-01  4.9948452744919836e-01  4.9900803316586773e-01  4.9822166313783134e-01  4.9665901832394821e-01  4.9476879126124923e-01  4.9024467259762922e-01  4.8882526082641381e-01  4.7390797345677943e-01  4.9279058708655904e-01  4.1464625040213415e-01  5.8153570920554232e-01  1.6372825949099507e-01  1.6751159502160065e+00  2.2230965466460240e-01  5.4548216371130642e-01  4.8130481811375792e-01  4.5450808263362819e-01  4.7120950315042015e-01  4.7699085755334292e-01  4.8408350397182121e-01  4.8908017506957047e-01  4.9318548327403089e-01  4.9591997462822124e-01  4.9771260988570992e-01  4.9875186164010193e-01  4.9930338855420242e-01  4.9953799168374291e-01  4.9958076611359453e-01  4.9949701650316369e-01  4.9935041030837968e-01  4.9912840565974459e-01  4.9896746206634029e-01  4.9883468161325567e-01  4.9892454244682344e-01  4.9935659111505309e-01  5.0013757112253066e-01  5.0129267026450297e-01  5.0239866782874432e-01  5.0295357027162024e-01  5.0280693276424215e-01  5.0221472130739464e-01  5.0150079091462996e-01  5.0086771341702618e-01  5.0039128999645610e-01  5.0007036454923481e-01  4.9987060353779983e-01  4.9974763216400758e-01  4.9965551431686683e-01  4.9953677151780873e-01  4.9932538625444722e-01  4.9888176664095851e-01  4.9812214276579897e-01  4.9658328895143111e-01  4.9471394181036732e-01  4.9021783330426721e-01  4.8882331707513443e-01  4.7396697119684988e-01  4.9287645111666356e-01  4.1489671795620170e-01  5.8174350406829689e-01  1.6451959686602730e-01  1.6760648344177922e+00  2.2248841047369683e-01  5.4577962923546808e-01  4.8149516637512130e-01  4.5462304371268514e-01  4.7127994565315773e-01  4.7703087011757039e-01  4.8410956806157524e-01  4.8909819940707672e-01  4.9320563284036845e-01  4.9594663663733346e-01  4.9774956027271516e-01  4.9880028972807938e-01  4.9936246222246589e-01  4.9960393390305446e-01  4.9964470260415467e-01  4.9954547690420437e-01  4.9935991956920195e-01  4.9905018669083639e-01  4.9884236936362092e-01  4.9850158311331122e-01  4.9864201125739699e-01  4.9916108169116602e-01  5.0034786259311226e-01  5.0245558092800968e-01  5.0416059491698773e-01  5.0449113676332258e-01  5.0353179488339517e-01  5.0214744902840625e-01  5.0093816877214681e-01  5.0010002915385909e-01  4.9961114626828901e-01  4.9937671973158265e-01  4.9929849755309108e-01  4.9929669978682001e-01  4.9930950878572572e-01  4.9927498670317960e-01  4.9912825254226817e-01  4.9873336361276843e-01  4.9801019476674591e-01  4.9650041805852541e-01  4.9465436900770665e-01  4.9018501946976600e-01  4.8881282128848919e-01  4.7400705631783951e-01  4.9293811540295968e-01  4.1509135748591269e-01  5.8190151393316991e-01  1.6515450710539362e-01  1.6768083997318868e+00  2.2261561079470496e-01  5.4599042668284392e-01  4.8163320117127689e-01  4.5470589875272754e-01  4.7133179486790028e-01  4.7706196947201535e-01  4.8413268536748372e-01  4.8911775108790834e-01  4.9323025736138443e-01  4.9598093028148782e-01  4.9779843763313447e-01  4.9886733127685001e-01  4.9945075878861062e-01  4.9971508339804882e-01  4.9977688876633092e-01  4.9969286074527308e-01  4.9949808002078178e-01  4.9915110107913202e-01  4.9890513073168746e-01  4.9820796023269831e-01  4.9856722738647047e-01  4.9873220591208423e-01  5.0089779522625066e-01  5.0501598903975420e-01  5.0714690413453556e-01  5.0625842296328816e-01  5.0338682086759678e-01  5.0081611428164552e-01  4.9921044186060148e-01  4.9843815905897537e-01  4.9821035852683737e-01  4.9827951730507208e-01  4.9847675495297489e-01  4.9869796896107899e-01  4.9887994196514135e-01  4.9896863410531561e-01  4.9890941642270992e-01  4.9857610340237857e-01  4.9789626492009537e-01  4.9641848938063599e-01  4.9459655622263360e-01  4.9015153566421366e-01  4.8879908239853670e-01  4.7403324927339940e-01  4.9298232825527016e-01  4.1523704079865992e-01  5.8201991137099718e-01  1.6564341197379104e-01  1.6773680933655510e+00  2.2270116541407881e-01  5.4613104533615020e-01  4.8172672283567769e-01  4.5476162163074663e-01  4.7136764642707396e-01  4.7708460038180917e-01  4.8415150204946517e-01  4.8913588295101318e-01  4.9325470114793318e-01  4.9601605683989941e-01  4.9784970024929570e-01  4.9894021976937025e-01  4.9955196249074352e-01  4.9985226171930608e-01  4.9995816856788666e-01  4.9992616729044292e-01  4.9977921257219776e-01  4.9949153382343714e-01  4.9921254133476828e-01  4.9825229583044151e-01  4.9915450074685530e-01  4.9779193789816278e-01  5.0295425546112160e-01  5.1001012252087929e-01  5.1077582625865314e-01  5.0661973439236851e-01  5.0039443962602748e-01  4.9701382564712399e-01  4.9573987794882191e-01  4.9571734849160137e-01  4.9622013327016323e-01  4.9687542164347775e-01  4.9750709569377161e-01  4.9803667471117563e-01  4.9843142351986447e-01  4.9866414914398893e-01  4.9870128691335819e-01  4.9843225779293671e-01  4.9779559234697246e-01  4.9634793116960402e-01  4.9454783903377070e-01  4.9012259159242216e-01  4.8878649318560741e-01  4.7404901715801517e-01  4.9301345601219432e-01  4.1533749729078162e-01  5.8210509564998902e-01  1.6599115429597827e-01  1.6777571136692628e+00  2.2275184167896103e-01  5.4621252265647313e-01  4.8178035853607937e-01  4.5479289969532616e-01  4.7138847991433064e-01  4.7709814235709525e-01  4.8416384414026570e-01  4.8914875183637496e-01  4.9327285727638309e-01  4.9604265867047798e-01  4.9788918444597147e-01  4.9899768496819991e-01  4.9963443791330325e-01  4.9996926598630553e-01  5.0012269494759243e-01  5.0015588759549967e-01  5.0009328496112171e-01  4.9992754161505792e-01  4.9967674143010504e-01  4.9892405322094457e-01  4.9989969963232972e-01  4.9486025207535783e-01  5.0622272960310299e-01  5.1371830374092897e-01  5.1004381175675761e-01  5.0226503179549409e-01  4.9110152604738089e-01  4.8961127200546745e-01  4.9080262352045223e-01  4.9248521690174463e-01  4.9414773668163858e-01  4.9554943196271112e-01  4.9665605777303057e-01  4.9748851095754837e-01  4.9807661774946221e-01  4.9843270269264955e-01  4.9854853448003655e-01  4.9832986169624144e-01  4.9772587878471719e-01  4.9630001925250544e-01  4.9451558360887754e-01  4.9010305587281611e-01  4.8877872525145460e-01  4.7405696463855895e-01  4.9303443779252393e-01  4.1539487539003045e-01  5.8216106902195752e-01  1.6619968679338665e-01  1.6779831788422717e+00  2.2277173285079566e-01  5.4624129353321116e-01  4.8179656103910212e-01  4.5480106228176259e-01  4.7139455760402360e-01  4.7710183621231039e-01  4.8416783463984897e-01  4.8915314338237142e-01  4.9327952381780499e-01  4.9605248669133833e-01  4.9790379595612838e-01  4.9901888418929141e-01  4.9966490752087611e-01  5.0001277702774216e-01  5.0018471053911751e-01  5.0024432258421447e-01  5.0021836732374225e-01  5.0010624618967714e-01  4.9987684535254795e-01  4.9941532923039283e-01  4.9913354459311743e-01  4.9258022257523892e-01  5.0672173204934312e-01  5.0130372837829584e-01  5.0217017929772911e-01  4.9391832920409090e-01  4.6592405995649538e-01  4.7957863068999712e-01  4.8673395096833572e-01  4.9053792501082971e-01  4.9309809811973321e-01  4.9494494495365848e-01  4.9629415006036220e-01  4.9726681315065885e-01  4.9793883846882725e-01  4.9834595152689953e-01  4.9849308881774518e-01  4.9829368200859447e-01  4.9770194374562382e-01  4.9628376561462356e-01  4.9450541325087677e-01  4.9009652384155133e-01  4.8877830976227299e-01  4.7405884934050269e-01  4.9304701417398134e-01  4.1541042799320477