<?xml version="1.0"?>
<VTKFile type="UnstructuredGrid"  version="0.1"  >
<UnstructuredGrid>
<Piece  NumberOfPoints="1617" NumberOfCells="3072">
<Points>
<DataArray  type="Float64"  NumberOfComponents="3"  format="ascii">0 0 0  0.03125 0 0  0.0625 0 0  0.09375 0 0  0.125 0 0  0.15625 0 0  0.1875 0 0  0.21875 0 0  0.25 0 0  0.28125 0 0  0.3125 0 0  0.34375 0 0  0.375 0 0  0.40625 0 0  0.4375 0 0  0.46875 0 0  0.5 0 0  0.53125 0 0  0.5625 0 0  0.59375 0 0  0.625 0 0  0.65625 0 0  0.6875 0 0  0.71875 0 0  0.75 0 0  0.78125 0 0  0.8125 0 0  0.84375 0 0  0.875 0 0  0.90625 0 0  0.9375 0 0  0.96875 0 0  1 0 0  1.03125 0 0  1.0625 0 0  1.09375 0 0  1.125 0 0  1.15625 0 0  1.1875 0 0  1.21875 0 0  1.25 0 0  1.28125 0 0  1.3125 0 0  1.34375 0 0  1.375 0 0  1.40625 0 0  1.4375 0 0  1.46875 0 0  1.5 0 0  0 0.03125 0  0.03125 0.03125 0  0.0625 0.03125 0  0.09375 0.03125 0  0.125 0.03125 0  0.15625 0.03125 0  0.1875 0.03125 0  0.21875 0.03125 0  0.25 0.03125 0  0.28125 0.03125 0  0.3125 0.03125 0  0.34375 0.03125 0  0.375 0.03125 0  0.40625 0.03125 0  0.4375 0.03125 0  0.46875 0.03125 0  0.5 0.03125 0  0.53125 0.03125 0  0.5625 0.03125 0  0.59375 0.03125 0  0.625 0.03125 0  0.65625 0.03125 0  0.6875 0.03125 0  0.71875 0.03125 0  0.75 0.03125 0  0.78125 0.03125 0  0.8125 0.03125 0  0.84375 0.03125 0  0.875 0.03125 0  0.90625 0.03125 0  0.9375 0.03125 0  0.96875 0.03125 0  1 0.03125 0  1.03125 0.03125 0  1.0625 0.03125 0  1.09375 0.03125 0  1.125 0.03125 0  1.15625 0.03125 0  1.1875 0.03125 0  1.21875 0.03125 0  1.25 0.03125 0  1.28125 0.03125 0  1.3125 0.03125 0  1.34375 0.03125 0  1.375 0.03125 0  1.40625 0.03125 0  1.4375 0.03125 0  1.46875 0.03125 0  1.5 0.03125 0  0 0.0625 0  0.03125 0.0625 0  0.0625 0.0625 0  0.09375 0.0625 0  0.125 0.0625 0  0.15625 0.0625 0  0.1875 0.0625 0  0.21875 0.0625 0  0.25 0.0625 0  0.28125 0.0625 0  0.3125 0.0625 0  0.34375 0.0625 0  0.375 0.0625 0  0.40625 0.0625 0  0.4375 0.0625 0  0.46875 0.0625 0  0.5 0.0625 0  0.53125 0.0625 0  0.5625 0.0625 0  0.59375 0.0625 0  0.625 0.0625 0  0.65625 0.0625 0  0.6875 0.0625 0  0.71875 0.0625 0  0.75 0.0625 0  0.78125 0.0625 0  0.8125 0.0625 0  0.84375 0.0625 0  0.875 0.0625 0  0.90625 0.0625 0  0.9375 0.0625 0  0.96875 0.0625 0  1 0.0625 0  1.03125 0.0625 0  1.0625 0.0625 0  1.09375 0.0625 0  1.125 0.0625 0  1.15625 0.0625 0  1.1875 0.0625 0  1.21875 0.0625 0  1.25 0.0625 0  1.28125 0.0625 0  1.3125 0.0625 0  1.34375 0.0625 0  1.375 0.0625 0  1.40625 0.0625 0  1.4375 0.0625 0  1.46875 0.0625 0  1.5 0.0625 0  0 0.09375 0  0.03125 0.09375 0  0.0625 0.09375 0  0.09375 0.09375 0  0.125 0.09375 0  0.15625 0.09375 0  0.1875 0.09375 0  0.21875 0.09375 0  0.25 0.09375 0  0.28125 0.09375 0  0.3125 0.09375 0  0.34375 0.09375 0  0.375 0.09375 0  0.40625 0.09375 0  0.4375 0.09375 0  0.46875 0.09375 0  0.5 0.09375 0  0.53125 0.09375 0  0.5625 0.09375 0  0.59375 0.09375 0  0.625 0.09375 0  0.65625 0.09375 0  0.6875 0.09375 0  0.71875 0.09375 0  0.75 0.09375 0  0.78125 0.09375 0  0.8125 0.09375 0  0.84375 0.09375 0  0.875 0.09375 0  0.90625 0.09375 0  0.9375 0.09375 0  0.96875 0.09375 0  1 0.09375 0  1.03125 0.09375 0  1.0625 0.09375 0  1.09375 0.09375 0  1.125 0.09375 0  1.15625 0.09375 0  1.1875 0.09375 0  1.21875 0.09375 0  1.25 0.09375 0  1.28125 0.09375 0  1.3125 0.09375 0  1.34375 0.09375 0  1.375 0.09375 0  1.40625 0.09375 0  1.4375 0.09375 0  1.46875 0.09375 0  1.5 0.09375 0  0 0.125 0  0.03125 0.125 0  0.0625 0.125 0  0.09375 0.125 0  0.125 0.125 0  0.15625 0.125 0  0.1875 0.125 0  0.21875 0.125 0  0.25 0.125 0  0.28125 0.125 0  0.3125 0.125 0  0.34375 0.125 0  0.375 0.125 0  0.40625 0.125 0  0.4375 0.125 0  0.46875 0.125 0  0.5 0.125 0  0.53125 0.125 0  0.5625 0.125 0  0.59375 0.125 0  0.625 0.125 0  0.65625 0.125 0  0.6875 0.125 0  0.71875 0.125 0  0.75 0.125 0  0.78125 0.125 0  0.8125 0.125 0  0.84375 0.125 0  0.875 0.125 0  0.90625 0.125 0  0.9375 0.125 0  0.96875 0.125 0  1 0.125 0  1.03125 0.125 0  1.0625 0.125 0  1.09375 0.125 0  1.125 0.125 0  1.15625 0.125 0  1.1875 0.125 0  1.21875 0.125 0  1.25 0.125 0  1.28125 0.125 0  1.3125 0.125 0  1.34375 0.125 0  1.375 0.125 0  1.40625 0.125 0  1.4375 0.125 0  1.46875 0.125 0  1.5 0.125 0  0 0.15625 0  0.03125 0.15625 0  0.0625 0.15625 0  0.09375 0.15625 0  0.125 0.15625 0  0.15625 0.15625 0  0.1875 0.15625 0  0.21875 0.15625 0  0.25 0.15625 0  0.28125 0.15625 0  0.3125 0.15625 0  0.34375 0.15625 0  0.375 0.15625 0  0.40625 0.15625 0  0.4375 0.15625 0  0.46875 0.15625 0  0.5 0.15625 0  0.53125 0.15625 0  0.5625 0.15625 0  0.59375 0.15625 0  0.625 0.15625 0  0.65625 0.15625 0  0.6875 0.15625 0  0.71875 0.15625 0  0.75 0.15625 0  0.78125 0.15625 0  0.8125 0.15625 0  0.84375 0.15625 0  0.875 0.15625 0  0.90625 0.15625 0  0.9375 0.15625 0  0.96875 0.15625 0  1 0.15625 0  1.03125 0.15625 0  1.0625 0.15625 0  1.09375 0.15625 0  1.125 0.15625 0  1.15625 0.15625 0  1.1875 0.15625 0  1.21875 0.15625 0  1.25 0.15625 0  1.28125 0.15625 0  1.3125 0.15625 0  1.34375 0.15625 0  1.375 0.15625 0  1.40625 0.15625 0  1.4375 0.15625 0  1.46875 0.15625 0  1.5 0.15625 0  0 0.1875 0  0.03125 0.1875 0  0.0625 0.1875 0  0.09375 0.1875 0  0.125 0.1875 0  0.15625 0.1875 0  0.1875 0.1875 0  0.21875 0.1875 0  0.25 0.1875 0  0.28125 0.1875 0  0.3125 0.1875 0  0.34375 0.1875 0  0.375 0.1875 0  0.40625 0.1875 0  0.4375 0.1875 0  0.46875 0.1875 0  0.5 0.1875 0  0.53125 0.1875 0  0.5625 0.1875 0  0.59375 0.1875 0  0.625 0.1875 0  0.65625 0.1875 0  0.6875 0.1875 0  0.71875 0.1875 0  0.75 0.1875 0  0.78125 0.1875 0  0.8125 0.1875 0  0.84375 0.1875 0  0.875 0.1875 0  0.90625 0.1875 0  0.9375 0.1875 0  0.96875 0.1875 0  1 0.1875 0  1.03125 0.1875 0  1.0625 0.1875 0  1.09375 0.1875 0  1.125 0.1875 0  1.15625 0.1875 0  1.1875 0.1875 0  1.21875 0.1875 0  1.25 0.1875 0  1.28125 0.1875 0  1.3125 0.1875 0  1.34375 0.1875 0  1.375 0.1875 0  1.40625 0.1875 0  1.4375 0.1875 0  1.46875 0.1875 0  1.5 0.1875 0  0 0.21875 0  0.03125 0.21875 0  0.0625 0.21875 0  0.09375 0.21875 0  0.125 0.21875 0  0.15625 0.21875 0  0.1875 0.21875 0  0.21875 0.21875 0  0.25 0.21875 0  0.28125 0.21875 0  0.3125 0.21875 0  0.34375 0.21875 0  0.375 0.21875 0  0.40625 0.21875 0  0.4375 0.21875 0  0.46875 0.21875 0  0.5 0.21875 0  0.53125 0.21875 0  0.5625 0.21875 0  0.59375 0.21875 0  0.625 0.21875 0  0.65625 0.21875 0  0.6875 0.21875 0  0.71875 0.21875 0  0.75 0.21875 0  0.78125 0.21875 0  0.8125 0.21875 0  0.84375 0.21875 0  0.875 0.21875 0  0.90625 0.21875 0  0.9375 0.21875 0  0.96875 0.21875 0  1 0.21875 0  1.03125 0.21875 0  1.0625 0.21875 0  1.09375 0.21875 0  1.125 0.21875 0  1.15625 0.21875 0  1.1875 0.21875 0  1.21875 0.21875 0  1.25 0.21875 0  1.28125 0.21875 0  1.3125 0.21875 0  1.34375 0.21875 0  1.375 0.21875 0  1.40625 0.21875 0  1.4375 0.21875 0  1.46875 0.21875 0  1.5 0.21875 0  0 0.25 0  0.03125 0.25 0  0.0625 0.25 0  0.09375 0.25 0  0.125 0.25 0  0.15625 0.25 0  0.1875 0.25 0  0.21875 0.25 0  0.25 0.25 0  0.28125 0.25 0  0.3125 0.25 0  0.34375 0.25 0  0.375 0.25 0  0.40625 0.25 0  0.4375 0.25 0  0.46875 0.25 0  0.5 0.25 0  0.53125 0.25 0  0.5625 0.25 0  0.59375 0.25 0  0.625 0.25 0  0.65625 0.25 0  0.6875 0.25 0  0.71875 0.25 0  0.75 0.25 0  0.78125 0.25 0  0.8125 0.25 0  0.84375 0.25 0  0.875 0.25 0  0.90625 0.25 0  0.9375 0.25 0  0.96875 0.25 0  1 0.25 0  1.03125 0.25 0  1.0625 0.25 0  1.09375 0.25 0  1.125 0.25 0  1.15625 0.25 0  1.1875 0.25 0  1.21875 0.25 0  1.25 0.25 0  1.28125 0.25 0  1.3125 0.25 0  1.34375 0.25 0  1.375 0.25 0  1.40625 0.25 0  1.4375 0.25 0  1.46875 0.25 0  1.5 0.25 0  0 0.28125 0  0.03125 0.28125 0  0.0625 0.28125 0  0.09375 0.28125 0  0.125 0.28125 0  0.15625 0.28125 0  0.1875 0.28125 0  0.21875 0.28125 0  0.25 0.28125 0  0.28125 0.28125 0  0.3125 0.28125 0  0.34375 0.28125 0  0.375 0.28125 0  0.40625 0.28125 0  0.4375 0.28125 0  0.46875 0.28125 0  0.5 0.28125 0  0.53125 0.28125 0  0.5625 0.28125 0  0.59375 0.28125 0  0.625 0.28125 0  0.65625 0.28125 0  0.6875 0.28125 0  0.71875 0.28125 0  0.75 0.28125 0  0.78125 0.28125 0  0.8125 0.28125 0  0.84375 0.28125 0  0.875 0.28125 0  0.90625 0.28125 0  0.9375 0.28125 0  0.96875 0.28125 0  1 0.28125 0  1.03125 0.28125 0  1.0625 0.28125 0  1.09375 0.28125 0  1.125 0.28125 0  1.15625 0.28125 0  1.1875 0.28125 0  1.21875 0.28125 0  1.25 0.28125 0  1.28125 0.28125 0  1.3125 0.28125 0  1.34375 0.28125 0  1.375 0.28125 0  1.40625 0.28125 0  1.4375 0.28125 0  1.46875 0.28125 0  1.5 0.28125 0  0 0.3125 0  0.03125 0.3125 0  0.0625 0.3125 0  0.09375 0.3125 0  0.125 0.3125 0  0.15625 0.3125 0  0.1875 0.3125 0  0.21875 0.3125 0  0.25 0.3125 0  0.28125 0.3125 0  0.3125 0.3125 0  0.34375 0.3125 0  0.375 0.3125 0  0.40625 0.3125 0  0.4375 0.3125 0  0.46875 0.3125 0  0.5 0.3125 0  0.53125 0.3125 0  0.5625 0.3125 0  0.59375 0.3125 0  0.625 0.3125 0  0.65625 0.3125 0  0.6875 0.3125 0  0.71875 0.3125 0  0.75 0.3125 0  0.78125 0.3125 0  0.8125 0.3125 0  0.84375 0.3125 0  0.875 0.3125 0  0.90625 0.3125 0  0.9375 0.3125 0  0.96875 0.3125 0  1 0.3125 0  1.03125 0.3125 0  1.0625 0.3125 0  1.09375 0.3125 0  1.125 0.3125 0  1.15625 0.3125 0  1.1875 0.3125 0  1.21875 0.3125 0  1.25 0.3125 0  1.28125 0.3125 0  1.3125 0.3125 0  1.34375 0.3125 0  1.375 0.3125 0  1.40625 0.3125 0  1.4375 0.3125 0  1.46875 0.3125 0  1.5 0.3125 0  0 0.34375 0  0.03125 0.34375 0  0.0625 0.34375 0  0.09375 0.34375 0  0.125 0.34375 0  0.15625 0.34375 0  0.1875 0.34375 0  0.21875 0.34375 0  0.25 0.34375 0  0.28125 0.34375 0  0.3125 0.34375 0  0.34375 0.34375 0  0.375 0.34375 0  0.40625 0.34375 0  0.4375 0.34375 0  0.46875 0.34375 0  0.5 0.34375 0  0.53125 0.34375 0  0.5625 0.34375 0  0.59375 0.34375 0  0.625 0.34375 0  0.65625 0.34375 0  0.6875 0.34375 0  0.71875 0.34375 0  0.75 0.34375 0  0.78125 0.34375 0  0.8125 0.34375 0  0.84375 0.34375 0  0.875 0.34375 0  0.90625 0.34375 0  0.9375 0.34375 0  0.96875 0.34375 0  1 0.34375 0  1.03125 0.34375 0  1.0625 0.34375 0  1.09375 0.34375 0  1.125 0.34375 0  1.15625 0.34375 0  1.1875 0.34375 0  1.21875 0.34375 0  1.25 0.34375 0  1.28125 0.34375 0  1.3125 0.34375 0  1.34375 0.34375 0  1.375 0.34375 0  1
[...]
<PointData  Scalars="f_81"> 
<DataArray  type="Float64"  Name="f_81"  format="ascii">8.8837783301958392e-02  3.4439845100066263e-01  3.7700447622233885e-01  4.0161789232400258e-01  4.1664547449083306e-01  4.2860641944916700e-01  4.3636498332847823e-01  4.4178476601664607e-01  4.4605014480414773e-01  4.4984463652386636e-01  4.5346785175943988e-01  4.5703863186713733e-01  4.6060123598998531e-01  4.6417461985468139e-01  4.6777024587967125e-01  4.7139790427110723e-01  4.7506734247611798e-01  4.7878852203631528e-01  4.8257136560286795e-01  4.8642526883118331e-01  4.9035850581687546e-01  4.9437764339953011e-01  4.9848708827253674e-01  5.0268888241032750e-01  5.0698282282208662e-01  5.1136691379774069e-01  5.1583808089531347e-01  5.2039301146324979e-01  5.2502895942580363e-01  5.2974437128361440e-01  5.3453924544248888e-01  5.3941520747957139e-01  5.4437533217617629e-01  5.4942378999172325e-01  5.5456530231279488e-01  5.5980451278433774e-01  5.6514459389646832e-01  5.7058518467473074e-01  5.7611574884200900e-01  5.8168872223295709e-01  5.8718087604123814e-01  5.9196372543270404e-01  5.9552824240938451e-01  5.9224829006459256e-01  5.8619658297016486e-01  5.8125409923052485e-01  4.0696077340485803e-01  3.8725234529538111e-01  2.1430457151392335e+00  6.7467587409701671e-02  5.3533875869371716e-01  4.2467407147427211e-01  4.9897263662114766e-01  5.0505808421898446e-01  5.1392555880392099e-01  5.1812576410370903e-01  5.1945692685334921e-01  5.1943078549216737e-01  5.1886199063643068e-01  5.1810749379335674e-01  5.1730000478249205e-01  5.1648252841982867e-01  5.1566861680743348e-01  5.1486307832346501e-01  5.1406831514577245e-01  5.1328596427406969e-01  5.1251717114742013e-01  5.1176245047914393e-01  5.1102142055835598e-01  5.1029252859109631e-01  5.0957285663392915e-01  5.0885808783586406e-01  5.0814268898704373e-01  5.0742032042048235e-01  5.0668442586739915e-01  5.0592890011595049e-01  5.0514870170201354e-01  5.0434028554037769e-01  5.0350177610147784e-01  5.0263286819191788e-01  5.0173450480784620e-01  5.0080841409157750e-01  4.9985658950931305e-01  4.9888073629140656e-01  4.9788163019671178e-01  4.9685800178888995e-01  4.9580381801411877e-01  4.9470134794156134e-01  4.9349268538315011e-01  4.9202679377165914e-01  4.8977539021095073e-01  4.8592234538368395e-01  4.7735961685086514e-01  4.6361063221989690e-01  4.5952045219028909e-01  3.6075561032026399e-01  3.6011611712280089e-01  1.5858521688444109e+00  8.3702202878192675e-02  5.4644326452116732e-01  3.6283185389527989e-01  4.8859441692366506e-01  4.7803771786434124e-01  4.8925362963276792e-01  4.9476545266976280e-01  4.9711365793227141e-01  4.9810037356830289e-01  4.9853485610905302e-01  4.9879008316826329e-01  4.9899298731070846e-01  4.9918235363604202e-01  4.9936830775541913e-01  4.9955349754335143e-01  4.9973891614970190e-01  4.9992531324644573e-01  5.0011343360620819e-01  5.0030397761766920e-01  5.0049749116304754e-01  5.0069423932922474e-01  5.0089409109076311e-01  5.0109644031750555e-01  5.0130018822622335e-01  5.0150380716333243e-01  5.0170549278079724e-01  5.0190338930321532e-01  5.0209584561984133e-01  5.0228164193683533e-01  5.0246013196410777e-01  5.0263127437396804e-01  5.0279556423083827e-01  5.0295389520205636e-01  5.0310739453753761e-01  5.0325720153647568e-01  5.0340418442972013e-01  5.0354797433148391e-01  5.0368480361378276e-01  5.0379890426581642e-01  5.0383612921482490e-01  5.0363767018351835e-01  5.0268455821507574e-01  5.0019830049657599e-01  4.9299865374240559e-01  4.8294422567436091e-01  4.7710212275590258e-01  3.8174298730284462e-01  3.8281224519832069e-01  1.6290670751924927e+00  8.8657424677928379e-02  5.4509439455491693e-01  3.6141229178680301e-01  5.0118079058226872e-01  4.7641219177246913e-01  4.9150659229720933e-01  4.9664536510574209e-01  4.9871208854628635e-01  4.9953266905035293e-01  4.9982219569515807e-01  4.9994573661498154e-01  5.0001807848419644e-01  5.0007415351242712e-01  5.0012208227086785e-01  5.0016392339204130e-01  5.0020043127823555e-01  5.0023224517932974e-01  5.0026009215079181e-01  5.0028477585425812e-01  5.0030709290621633e-01  5.0032770738306798e-01  5.0034699721420850e-01  5.0036489635508141e-01  5.0038077283793891e-01  5.0039339517949522e-01  5.0040103426716975e-01  5.0040170965839081e-01  5.0039352525828507e-01  5.0037498690699500e-01  5.0034519800891453e-01  5.0030388909969126e-01  5.0025131024812430e-01  5.0018805079749584e-01  5.0011485782086884e-01  5.0003244141035985e-01  4.9994126305834841e-01  4.9984074053223171e-01  4.9972722826113103e-01  4.9958623308517702e-01  4.9936543862399368e-01  4.9891593033167531e-01  4.9772958299827108e-01  4.9511392231295909e-01  4.8794107079730287e-01  4.7837973811762036e-01  4.7431335852089523e-01  3.7981913344405749e-01  3.8126423095900847e-01  1.6238518890476643e+00  9.0537799657067361e-02  5.4879931989502595e-01  3.6540122532674779e-01  5.0358266676421160e-01  4.7472203809642821e-01  4.9275134567903595e-01  4.9672680673461161e-01  4.9862613987358084e-01  4.9937797832139819e-01  4.9960930302461776e-01  4.9968541709379116e-01  4.9971535770982883e-01  4.9973178834553805e-01  4.9974288611542261e-01  4.9975118328512597e-01  4.9975779871301002e-01  4.9976372798396945e-01  4.9977014567827210e-01  4.9977844998267984e-01  4.9979018306563144e-01  4.9980684421604327e-01  4.9982961972414208e-01  4.9985906198621044e-01  4.9989479761203254e-01  4.9993538547627359e-01  4.9997844722351409e-01  5.0002110932006405e-01  5.0006063646835075e-01  5.0009500777509530e-01  5.0012321677582372e-01  5.0014523850497661e-01  5.0016176469108520e-01  5.0017386179645695e-01  5.0018267891867330e-01  5.0018921050986820e-01  5.0019409318601393e-01  5.0019687116413314e-01  5.0019406552201129e-01  5.0017161979370373e-01  5.0007844300526638e-01  4.9976855813026300e-01  4.9874647887474932e-01  4.9633566854425609e-01  4.8950297068056930e-01  4.8041036789758140e-01  4.7691547657408673e-01  3.8332015874752878e-01  3.8567989007992592e-01  1.6320488750469642e+00  9.1479146116481364e-02  5.5131200101608269e-01  3.6616214066881531e-01  5.0383062157675274e-01  4.7487496346796121e-01  4.9360730622103133e-01  4.9671132563629478e-01  4.9876043642602036e-01  4.9951225714850273e-01  4.9972962666621396e-01  4.9979450806141990e-01  4.9981171448884437e-01  4.9981275983870876e-01  4.9980752995274841e-01  4.9979897589229860e-01  4.9978848756467048e-01  4.9977733794661994e-01  4.9976714170481823e-01  4.9975998565515856e-01  4.9975833423201566e-01  4.9976472133408451e-01  4.9978128418782175e-01  4.9980913711720254e-01  4.9984776105756584e-01  4.9989467024121448e-01  4.9994565184528583e-01  4.9999569051836973e-01  5.0004027003012541e-01  5.0007643722083106e-01  5.0010318342268545e-01  5.0012114838972210e-01  5.0013196955608330e-01  5.0013762227887937e-01  5.0013995441181525e-01  5.0014040169248197e-01  5.0013981161099352e-01  5.0013775487284162e-01  5.0013065400137735e-01  5.0010426363692140e-01  5.0000740563173707e-01  4.9969428625373591e-01  4.9867282632312016e-01  4.9627333000468132e-01  4.8949357137051974e-01  4.8054992374330235e-01  4.7724405930051389e-01  3.8413724581025099e-01  3.8695870227216950e-01  1.6338393601454302e+00  9.1959254311459418e-02  5.5291556130747688e-01  3.6625744511841501e-01  5.0421048082926501e-01  4.7515213447852472e-01  4.9378479734933506e-01  4.9664000936129704e-01  4.9886532206134343e-01  4.9958005182618592e-01  4.9979070668493697e-01  4.9985264220701625e-01  4.9986290774898673e-01  4.9985445182752081e-01  4.9983889827604966e-01  4.9981894735133692e-01  4.9979614589064492e-01  4.9977198345962703e-01  4.9974860868600290e-01  4.9972914325821710e-01  4.9971751093633776e-01  4.9971801260069687e-01  4.9973457366449386e-01  4.9976948469521398e-01  4.9982213165782313e-01  4.9988818805310176e-01  4.9996005495382678e-01  5.0002890412522416e-01  5.0008744321555909e-01  5.0013181133373108e-01  5.0016179375989367e-01  5.0017974892892958e-01  5.0018915463011882e-01  5.0019345252682323e-01  5.0019542317026022e-01  5.0019695422718002e-01  5.0019899416080316e-01  5.0020098842832095e-01  5.0019909265347196e-01  5.0017871727720131e-01  5.0008826510377347e-01  4.9978148840674147e-01  4.9876698710098566e-01  4.9637582309833883e-01  4.8962301393355362e-01  4.8075428371034085e-01  4.7753596095139528e-01  3.8473997923664144e-01  3.8817500194454846e-01  1.6364671467217489e+00  9.2157120661066794e-02  5.5385779093147824e-01  3.6611143142374614e-01  5.0441565489784690e-01  4.7513382242736535e-01  4.9374582409040813e-01  4.9660318906962164e-01  4.9889223328993598e-01  4.9957198447852658e-01  4.9979491119938874e-01  4.9986061595452341e-01  4.9986982343245340e-01  4.9985875217476539e-01  4.9983894095724263e-01  4.9981234232228133e-01  4.9978047155768102e-01  4.9974476889164160e-01  4.9970795826786957e-01  4.9967462192547452e-01  4.9965082783504966e-01  4.9964400650120022e-01  4.9966160261417675e-01  4.9970844786772251e-01  4.9978414840671570e-01  4.9988086497035478e-01  4.9998415929243784e-01  5.0007795179656767e-01  5.0015064543694798e-01  5.0019818953554152e-01  5.0022310771157230e-01  5.0023142806519638e-01  5.0022975302327899e-01  5.0022352439943862e-01  5.0021646066882175e-01  5.0021064707584328e-01  5.0020681672605760e-01  5.0020402053138746e-01  5.0019798013724681e-01  5.0017370943267425e-01  5.0007927865741919e-01  4.9976803422917493e-01  4.9874883308299178e-01  4.9635199052126000e-01  4.8960301573007065e-01  4.8076954814678824e-01  4.7759229774079126e-01  3.8498187914212767e-01  3.8888454555924179e-01  1.6383636676225699e+00  9.2240376383998568e-02  5.5449012194696534e-01  3.6596135847003997e-01  5.0456097934181576e-01  4.7508793102828234e-01  4.9374836893100010e-01  4.9660607477119362e-01  4.9890250581242168e-01  4.9957289003217720e-01  4.9980865328804436e-01  4.9987393144099901e-01  4.9988216254934220e-01  4.9986920146832436e-01  4.9984496439729770e-01  4.9981066037102478e-01  4.9976722820851721e-01  4.9971547508296699e-01  4.9965864043311392e-01  4.9960289276980463e-01  4.9955723847988565e-01  4.9953514726126180e-01  4.9955104784500998e-01  4.9961556172862143e-01  4.9972987619546788e-01  4.9987866684835658e-01  5.0003248997607774e-01  5.0016115518780024e-01  5.0024744565854329e-01  5.0029047570525909e-01  5.0030015403648886e-01  5.0028961423411122e-01  5.0027014718418239e-01  5.0024935423525585e-01  5.0023136403333457e-01  5.0021777206784146e-01  5.0020851369526886e-01  5.0020185160234154e-01  5.0019286609334934e-01  5.0016612873232213e-01  5.0006946315577983e-01  4.9975600833300043e-01  4.9873481922006202e-01  4.9633527216473544e-01  4.8958979476793973e-01  4.8078207555944780e-01  4.7763407259312202e-01  3.8516013812668920e-01  3.8944631558396525e-01  1.6400314434433969e+00  9.2268934708415296e-02  5.5494998922318617e-01  3.6584158672961559e-01  5.0468881222152007e-01  4.7506449798548928e-01  4.9377494988587373e-01  4.9661771293888041e-01  4.9892047381653171e-01  4.9959301331439254e-01  4.9983415756282368e-01  4.9989832193142814e-01  4.9990739714960386e-01  4.9989349624101592e-01  4.9986527569689115e-01  4.9982291547715318e-01  4.9976559373006268e-01  4.9969247303545017e-01  4.9960650432765386e-01  4.9951408414575044e-01  4.9942867090549020e-01  4.9937572975421440e-01  4.9938281251809180e-01  4.9947533653011605e-01  4.9966030230422898e-01  4.9990325605930253e-01  5.0013947070522635e-01  5.0031213169959610e-01  5.0040130484742940e-01  5.0042008322336029e-01  5.0039529568818664e-01  5.0035185868060217e-01  5.0030641000926102e-01  5.0026742535253155e-01  5.0023776664412201e-01  5.0021718053311215e-01  5.0020392762442156e-01  5.0019501214740059e-01  5.0018468074248468e-01  5.0015703935023870e-01  5.0005974136652542e-01  4.9974585713556779e-01  4.9872465202475513e-01  4.9632464763987705e-01  4.8958307702915393e-01  4.8079578624729097e-01  4.7767108598636016e-01  3.8530299939105755e-01  3.8989320418026319e-01  1.6414688027822604e+00  9.2269556373395220e-02  5.5529441350328412e-01  3.6574573338226651e-01  5.0479805759300067e-01  4.7504883422709598e-01  4.9380202589198269e-01  4.9663091917596563e-01  4.9894354069981650e-01  4.9961833480494561e-01  4.9986280710905756e-01  4.9992947112132169e-01  4.9994223074453348e-01  4.9993003842134504e-01  4.9990083509528765e-01  4.9985267287453350e-01  4.9978129298410801e-01  4.9968241620645570e-01  4.9955534803971208e-01  4.9940283112987754e-01  4.9924701613547257e-01  4.9913388266441866e-01  4.9911519461783205e-01  4.9925886918646056e-01  4.9958553473482686e-01  5.0000491841648464e-01  5.0036888966440185e-01  5.0057757761392663e-01  5.0063033221204623e-01  5.0058231481366078e-01  5.0049248340876462e-01  5.0039984432621665e-01  5.0032265172891255e-01  5.0026569486544337e-01  5.0022719414669725e-01  5.0020310659284350e-01  5.0018911328303328e-01  5.0018065941232215e-01  5.0017115425451919e-01  5.0014435289509340e-01  5.0004788214473239e-01  4.9973489652606545e-01  4.9871491156035108e-01  4.9631577277805677e-01  4.8957814342994749e-01  4.8080724996203195e-01  4.7770175645911234e-01  3.8541919194305535e-01  3.9025338225422962e-01  1.6426928249220569e+00  9.2255499395430138e-02  5.5555216382077011e-01  3.6566811905681479e-01  5.0488984625170652e-01  4.7503803687171026e-01  4.9382869681243413e-01  4.9664704391806369e-01  4.9896959259240420e-01  4.9964687665760438e-01  4.9989667796083487e-01  4.9996931835604930e-01  4.9998894436715924e-01  4.9998309817827569e-01  4.9995872826638466e-01  4.9991065544355551e-01  4.9982956332364092e-01  4.9970439908691755e-01  4.9952306036538086e-01  4.9927894373744280e-01  4.9900793110393704e-01  4.9877783621399674e-01  4.9869334641168594e-01  4.9894505180568222e-01  4.9956713590320778e-01  5.0030829021349865e-01  5.0083425168663032e-01  5.0100281089799692e-01  5.0091611557565974e-01  5.0072785982750934e-01  5.0053971351641779e-01  5.0039242301340436e-01  5.0029111270839288e-01  5.0022731071190674e-01  5.0019024714320515e-01  5.0017074831366082e-01  5.0016192139922466e-01  5.0015809358879304e-01  5.0015232667871234e-01  5.0012842981921468e-01  5.0003429645421271e-01  4.9972338237257385e-01  4.9870554924613131e-01  4.9630819966250100e-01  4.8957451152566267e-01  4.8081693585113916e-01  4.7772761572998018e-01  3.8551504888004540e-01  3.9054473984583177e-01  1.6437170630865092e+00  9.2235264668117309e-02  5.5574168371466748e-01  3.6560563459032647e-01  5.0496521381490300e-01  4.7503039640737621e-01  4.9385342460812287e-01  4.9666389234753455e-01  4.9899607479695096e-01  4.9967728354254132e-01  4.9993459131268386e-01  5.0001609760338361e-01  5.0004686401668619e-01  5.0005416794926871e-01  5.0004414579999712e-01  5.0000867756353684e-01  4.9993267777378847e-01  4.9979321417912076e-01  4.9955519399268739e-01  4.9919422239442435e-01  4.9874891676389332e-01  4.9828877520386983e-01  4.9806466050861398e-01  4.9856749558965735e-01  4.9978373537477638e-01  5.0106180066686257e-01  5.0168279606569965e-01  5.0154813229825201e-01  5.0111044091972146e-01  5.0069689866752687e-01  5.0041519661721068e-01  5.0025296425240207e-01  5.0016968679491225e-01  5.0013176706913920e-01  5.0011822615249568e-01  5.0011724858151752e-01  5.0012212347361795e-01  5.0012812142751029e-01  5.0012929330037381e-01  5.0011031410777107e-01  5.0001981452159661e-01  4.9971183462135488e-01  4.9869671776495339e-01  4.9630167115525031e-01  4.8957178327326478e-01  4.8082491684482531e-01  4.7774919545232070e-01  3.8559336240807301e-01  3.9077715784240336e-01  1.6445491444869209e+00  9.2214963492783603e-02  5.5587623380061701e-01  3.6555652414855644e-01  5.0502494768976136e-01  4.7502486990650866e-01  4.9387505029811035e-01  4.9667984514922481e-01  4.9902109492488389e-01  4.9970721058792772e-01  4.9997328413435244e-01  5.0006603995931420e-01  5.0011237818807219e-01  5.0014059003271927e-01  5.0015784743688185e-01  5.0015581280883215e-01  5.0011552064265985e-01  4.9999990378841636e-01  4.9974518467974910e-01  4.9929944729143039e-01  4.9865688368760663e-01  4.9782792343847831e-01  4.9737957271937649e-01  4.9833537435029435e-01  5.0058822563932659e-01  5.0267475037821163e-01  5.0298762650041207e-01  5.0189291772560995e-01  5.0080854454640000e-01  5.0016394758384808e-01  4.9991694667780040e-01  4.9987769867679716e-01  4.9991344477083899e-01  4.9996376443909718e-01  5.0000871105498057e-01  5.0004480816114039e-01  5.0007300049175196e-01  5.0009380614234411e-01  5.0010453818551848e-01  5.0009188561633733e-01  5.0000577541248648e-01  4.9970111190487004e-01  4.9868884326153412e-01  4.9629619902117761e-01  4.8956978325672507e-01  4.8083125100588509e-01  4.7776670961147172e-01  3.8565532047870743e-01  3.9095641410307896e-01  1.6451935152496120e+00  9.2199217549723836e-02  5.5596559647900801e-01  3.6551954295126826e-01  5.0506942390582166e-01  4.7502059359439569e-01  4.9389240642715510e-01  4.9669313961657435e-01  4.9904213342838577e-01  4.9973307663669153e-01  5.0000781491068969e-01  5.0011253903529895e-01  5.0017668985788433e-01  5.0023115083942660e-01  5.0028707606953460e-01  5.0034088348993500e-01  5.0037712522618627e-01  5.0035642089555799e-01  5.0020506455113756e-01  4.9984391138495321e-01  4.9913962164366327e-01  4.9788680892256093e-01  4.9707253083348713e-01  4.9821180588376973e-01  5.0211294164013331e-01  5.0555274389789584e-01  5.0489438344210025e-01  5.0145038325522739e-01  4.9919393559846748e-01  4.9873765162562111e-01  4.9887555084489271e-01  4.9921249737155987e-01  4.9951838461082765e-01  4.9973521662405307e-01  4.9987549349766180e-01  4.9996472791139163e-01  5.0002277069926604e-01  5.0006083057512629e-01  5.0008190981391676e-01  5.0007572140224898e-01  4.9999387092656516e-01  4.9969226112293602e-01  4.9868247618345440e-01  4.9629191131838712e-01  4.8956842145112311e-01  4.8083593946386649e-01  4.7778015664981066e-01  3.8570123300757775e-01  3.9108562076364795e-01  1.6456524556414407e+00  9.2191402476210937e-02  5.5601669989019498e-01  3.6549374276186630e-01  5.0509879202166896e-01  4.7501687751614824e-01  4.9390442368054016e-01  4.9670209327198839e-01  4.9905660492249027e-01  4.9975098672010798e-01  5.0003229889199663e-01  5.0014655340397285e-01  5.0022566854496608e-01  5.0030361306337545e-01  5.0039687291775425e-01  5.0051005531340220e-01  5.0063979797347180e-01  5.0076471694221414e-01  5.0083736557914604e-01  5.0078885861417421e-01  5.0042055634889981e-01  4.9945589755814657e-01  4.9936916634367001e-01  4.9923169505019505e-01  5.0489732536923337e-01  5.1164998906819126e-01  5.0936634521903790e-01  4.9951540227137137e-01  4.9631187293380402e-01  4.9630194144579476e-01  4.9745417737512609e-01  4.9841830615014637e-01  4.9909589696261625e-01  4.9951418922253610e-01  4.9975801583579782e-01  4.9989953199006154e-01  4.9998439750258916e-01  5.0003681275713152e-01  5.0006600000767831e-01  5.0006465112264564e-01  4.9998585959799813e-01  4.9968634657291350e-01  4.9867819737069419e-01  4.9628901290907890e-01  4.8956770118567572e-01  4.8083901014187824e-01  4.7778949444175040e-01  3.8573111533703364e-01  3.9116642202588964e-01  1.6459270260207084e+00  9.2193632635098680e-02  5.5603374222873725e-01  3.6547838118831855e-01  5.0511308978303615e-01  4.7501323547789914e-01  4.9391031315056155e-01  4.9670544862830862e-01  4.9906248530585590e-01  4.9975773028495685e-01  5.0004154427551206e-01  5.0015945730185407e-01  5.0024456094201397e-01  5.0033206110280337e-01  5.0044076875594601e-01  5.0057910914716719e-01  5.0075034839266475e-01  5.0094489219589022e-01  5.0113396782964403e-01  5.0126852140483502e-01  5.0124030767342875e-01  5.0105927947680651e-01  5.0251830472507864e-01  5.0081246446256122e-01  5.1787879184316288e-01  5.1699858812661037e-01  5.1539490179580472e-01  5.1220941606388060e-01  4.9309193322001943e-01  4.9455178264702204e-01  4.9652885309290806e-01  4.9798138815223553e-01  4.9889243463464672e-01  4.9941956305574253e-01  4.9971264609913946e-01  4.9987623665683800e-01  4.9997128924217177e-01  5.0002875231603416e-01  5.0006066717861974e-01  5.0006090419473048e-01  4.9998306669719400e-01  4.9968414867833588e-01  4.9867642949405683e-01  4.9628766460131518e-01  4.8956764290143395e-01  4.8084048736324370e-01  4.7779466265744058e