<?xml version="1.0"?>
<VTKFile type="UnstructuredGrid"  version="0.1"  >
<UnstructuredGrid>
<Piece  NumberOfPoints="1617" NumberOfCells="3072">
<Points>
<DataArray  type="Float64"  NumberOfComponents="3"  format="ascii">0 0 0  0.03125 0 0  0.0625 0 0  0.09375 0 0  0.125 0 0  0.15625 0 0  0.1875 0 0  0.21875 0 0  0.25 0 0  0.28125 0 0  0.3125 0 0  0.34375 0 0  0.375 0 0  0.40625 0 0  0.4375 0 0  0.46875 0 0  0.5 0 0  0.53125 0 0  0.5625 0 0  0.59375 0 0  0.625 0 0  0.65625 0 0  0.6875 0 0  0.71875 0 0  0.75 0 0  0.78125 0 0  0.8125 0 0  0.84375 0 0  0.875 0 0  0.90625 0 0  0.9375 0 0  0.96875 0 0  1 0 0  1.03125 0 0  1.0625 0 0  1.09375 0 0  1.125 0 0  1.15625 0 0  1.1875 0 0  1.21875 0 0  1.25 0 0  1.28125 0 0  1.3125 0 0  1.34375 0 0  1.375 0 0  1.40625 0 0  1.4375 0 0  1.46875 0 0  1.5 0 0  0 0.03125 0  0.03125 0.03125 0  0.0625 0.03125 0  0.09375 0.03125 0  0.125 0.03125 0  0.15625 0.03125 0  0.1875 0.03125 0  0.21875 0.03125 0  0.25 0.03125 0  0.28125 0.03125 0  0.3125 0.03125 0  0.34375 0.03125 0  0.375 0.03125 0  0.40625 0.03125 0  0.4375 0.03125 0  0.46875 0.03125 0  0.5 0.03125 0  0.53125 0.03125 0  0.5625 0.03125 0  0.59375 0.03125 0  0.625 0.03125 0  0.65625 0.03125 0  0.6875 0.03125 0  0.71875 0.03125 0  0.75 0.03125 0  0.78125 0.03125 0  0.8125 0.03125 0  0.84375 0.03125 0  0.875 0.03125 0  0.90625 0.03125 0  0.9375 0.03125 0  0.96875 0.03125 0  1 0.03125 0  1.03125 0.03125 0  1.0625 0.03125 0  1.09375 0.03125 0  1.125 0.03125 0  1.15625 0.03125 0  1.1875 0.03125 0  1.21875 0.03125 0  1.25 0.03125 0  1.28125 0.03125 0  1.3125 0.03125 0  1.34375 0.03125 0  1.375 0.03125 0  1.40625 0.03125 0  1.4375 0.03125 0  1.46875 0.03125 0  1.5 0.03125 0  0 0.0625 0  0.03125 0.0625 0  0.0625 0.0625 0  0.09375 0.0625 0  0.125 0.0625 0  0.15625 0.0625 0  0.1875 0.0625 0  0.21875 0.0625 0  0.25 0.0625 0  0.28125 0.0625 0  0.3125 0.0625 0  0.34375 0.0625 0  0.375 0.0625 0  0.40625 0.0625 0  0.4375 0.0625 0  0.46875 0.0625 0  0.5 0.0625 0  0.53125 0.0625 0  0.5625 0.0625 0  0.59375 0.0625 0  0.625 0.0625 0  0.65625 0.0625 0  0.6875 0.0625 0  0.71875 0.0625 0  0.75 0.0625 0  0.78125 0.0625 0  0.8125 0.0625 0  0.84375 0.0625 0  0.875 0.0625 0  0.90625 0.0625 0  0.9375 0.0625 0  0.96875 0.0625 0  1 0.0625 0  1.03125 0.0625 0  1.0625 0.0625 0  1.09375 0.0625 0  1.125 0.0625 0  1.15625 0.0625 0  1.1875 0.0625 0  1.21875 0.0625 0  1.25 0.0625 0  1.28125 0.0625 0  1.3125 0.0625 0  1.34375 0.0625 0  1.375 0.0625 0  1.40625 0.0625 0  1.4375 0.0625 0  1.46875 0.0625 0  1.5 0.0625 0  0 0.09375 0  0.03125 0.09375 0  0.0625 0.09375 0  0.09375 0.09375 0  0.125 0.09375 0  0.15625 0.09375 0  0.1875 0.09375 0  0.21875 0.09375 0  0.25 0.09375 0  0.28125 0.09375 0  0.3125 0.09375 0  0.34375 0.09375 0  0.375 0.09375 0  0.40625 0.09375 0  0.4375 0.09375 0  0.46875 0.09375 0  0.5 0.09375 0  0.53125 0.09375 0  0.5625 0.09375 0  0.59375 0.09375 0  0.625 0.09375 0  0.65625 0.09375 0  0.6875 0.09375 0  0.71875 0.09375 0  0.75 0.09375 0  0.78125 0.09375 0  0.8125 0.09375 0  0.84375 0.09375 0  0.875 0.09375 0  0.90625 0.09375 0  0.9375 0.09375 0  0.96875 0.09375 0  1 0.09375 0  1.03125 0.09375 0  1.0625 0.09375 0  1.09375 0.09375 0  1.125 0.09375 0  1.15625 0.09375 0  1.1875 0.09375 0  1.21875 0.09375 0  1.25 0.09375 0  1.28125 0.09375 0  1.3125 0.09375 0  1.34375 0.09375 0  1.375 0.09375 0  1.40625 0.09375 0  1.4375 0.09375 0  1.46875 0.09375 0  1.5 0.09375 0  0 0.125 0  0.03125 0.125 0  0.0625 0.125 0  0.09375 0.125 0  0.125 0.125 0  0.15625 0.125 0  0.1875 0.125 0  0.21875 0.125 0  0.25 0.125 0  0.28125 0.125 0  0.3125 0.125 0  0.34375 0.125 0  0.375 0.125 0  0.40625 0.125 0  0.4375 0.125 0  0.46875 0.125 0  0.5 0.125 0  0.53125 0.125 0  0.5625 0.125 0  0.59375 0.125 0  0.625 0.125 0  0.65625 0.125 0  0.6875 0.125 0  0.71875 0.125 0  0.75 0.125 0  0.78125 0.125 0  0.8125 0.125 0  0.84375 0.125 0  0.875 0.125 0  0.90625 0.125 0  0.9375 0.125 0  0.96875 0.125 0  1 0.125 0  1.03125 0.125 0  1.0625 0.125 0  1.09375 0.125 0  1.125 0.125 0  1.15625 0.125 0  1.1875 0.125 0  1.21875 0.125 0  1.25 0.125 0  1.28125 0.125 0  1.3125 0.125 0  1.34375 0.125 0  1.375 0.125 0  1.40625 0.125 0  1.4375 0.125 0  1.46875 0.125 0  1.5 0.125 0  0 0.15625 0  0.03125 0.15625 0  0.0625 0.15625 0  0.09375 0.15625 0  0.125 0.15625 0  0.15625 0.15625 0  0.1875 0.15625 0  0.21875 0.15625 0  0.25 0.15625 0  0.28125 0.15625 0  0.3125 0.15625 0  0.34375 0.15625 0  0.375 0.15625 0  0.40625 0.15625 0  0.4375 0.15625 0  0.46875 0.15625 0  0.5 0.15625 0  0.53125 0.15625 0  0.5625 0.15625 0  0.59375 0.15625 0  0.625 0.15625 0  0.65625 0.15625 0  0.6875 0.15625 0  0.71875 0.15625 0  0.75 0.15625 0  0.78125 0.15625 0  0.8125 0.15625 0  0.84375 0.15625 0  0.875 0.15625 0  0.90625 0.15625 0  0.9375 0.15625 0  0.96875 0.15625 0  1 0.15625 0  1.03125 0.15625 0  1.0625 0.15625 0  1.09375 0.15625 0  1.125 0.15625 0  1.15625 0.15625 0  1.1875 0.15625 0  1.21875 0.15625 0  1.25 0.15625 0  1.28125 0.15625 0  1.3125 0.15625 0  1.34375 0.15625 0  1.375 0.15625 0  1.40625 0.15625 0  1.4375 0.15625 0  1.46875 0.15625 0  1.5 0.15625 0  0 0.1875 0  0.03125 0.1875 0  0.0625 0.1875 0  0.09375 0.1875 0  0.125 0.1875 0  0.15625 0.1875 0  0.1875 0.1875 0  0.21875 0.1875 0  0.25 0.1875 0  0.28125 0.1875 0  0.3125 0.1875 0  0.34375 0.1875 0  0.375 0.1875 0  0.40625 0.1875 0  0.4375 0.1875 0  0.46875 0.1875 0  0.5 0.1875 0  0.53125 0.1875 0  0.5625 0.1875 0  0.59375 0.1875 0  0.625 0.1875 0  0.65625 0.1875 0  0.6875 0.1875 0  0.71875 0.1875 0  0.75 0.1875 0  0.78125 0.1875 0  0.8125 0.1875 0  0.84375 0.1875 0  0.875 0.1875 0  0.90625 0.1875 0  0.9375 0.1875 0  0.96875 0.1875 0  1 0.1875 0  1.03125 0.1875 0  1.0625 0.1875 0  1.09375 0.1875 0  1.125 0.1875 0  1.15625 0.1875 0  1.1875 0.1875 0  1.21875 0.1875 0  1.25 0.1875 0  1.28125 0.1875 0  1.3125 0.1875 0  1.34375 0.1875 0  1.375 0.1875 0  1.40625 0.1875 0  1.4375 0.1875 0  1.46875 0.1875 0  1.5 0.1875 0  0 0.21875 0  0.03125 0.21875 0  0.0625 0.21875 0  0.09375 0.21875 0  0.125 0.21875 0  0.15625 0.21875 0  0.1875 0.21875 0  0.21875 0.21875 0  0.25 0.21875 0  0.28125 0.21875 0  0.3125 0.21875 0  0.34375 0.21875 0  0.375 0.21875 0  0.40625 0.21875 0  0.4375 0.21875 0  0.46875 0.21875 0  0.5 0.21875 0  0.53125 0.21875 0  0.5625 0.21875 0  0.59375 0.21875 0  0.625 0.21875 0  0.65625 0.21875 0  0.6875 0.21875 0  0.71875 0.21875 0  0.75 0.21875 0  0.78125 0.21875 0  0.8125 0.21875 0  0.84375 0.21875 0  0.875 0.21875 0  0.90625 0.21875 0  0.9375 0.21875 0  0.96875 0.21875 0  1 0.21875 0  1.03125 0.21875 0  1.0625 0.21875 0  1.09375 0.21875 0  1.125 0.21875 0  1.15625 0.21875 0  1.1875 0.21875 0  1.21875 0.21875 0  1.25 0.21875 0  1.28125 0.21875 0  1.3125 0.21875 0  1.34375 0.21875 0  1.375 0.21875 0  1.40625 0.21875 0  1.4375 0.21875 0  1.46875 0.21875 0  1.5 0.21875 0  0 0.25 0  0.03125 0.25 0  0.0625 0.25 0  0.09375 0.25 0  0.125 0.25 0  0.15625 0.25 0  0.1875 0.25 0  0.21875 0.25 0  0.25 0.25 0  0.28125 0.25 0  0.3125 0.25 0  0.34375 0.25 0  0.375 0.25 0  0.40625 0.25 0  0.4375 0.25 0  0.46875 0.25 0  0.5 0.25 0  0.53125 0.25 0  0.5625 0.25 0  0.59375 0.25 0  0.625 0.25 0  0.65625 0.25 0  0.6875 0.25 0  0.71875 0.25 0  0.75 0.25 0  0.78125 0.25 0  0.8125 0.25 0  0.84375 0.25 0  0.875 0.25 0  0.90625 0.25 0  0.9375 0.25 0  0.96875 0.25 0  1 0.25 0  1.03125 0.25 0  1.0625 0.25 0  1.09375 0.25 0  1.125 0.25 0  1.15625 0.25 0  1.1875 0.25 0  1.21875 0.25 0  1.25 0.25 0  1.28125 0.25 0  1.3125 0.25 0  1.34375 0.25 0  1.375 0.25 0  1.40625 0.25 0  1.4375 0.25 0  1.46875 0.25 0  1.5 0.25 0  0 0.28125 0  0.03125 0.28125 0  0.0625 0.28125 0  0.09375 0.28125 0  0.125 0.28125 0  0.15625 0.28125 0  0.1875 0.28125 0  0.21875 0.28125 0  0.25 0.28125 0  0.28125 0.28125 0  0.3125 0.28125 0  0.34375 0.28125 0  0.375 0.28125 0  0.40625 0.28125 0  0.4375 0.28125 0  0.46875 0.28125 0  0.5 0.28125 0  0.53125 0.28125 0  0.5625 0.28125 0  0.59375 0.28125 0  0.625 0.28125 0  0.65625 0.28125 0  0.6875 0.28125 0  0.71875 0.28125 0  0.75 0.28125 0  0.78125 0.28125 0  0.8125 0.28125 0  0.84375 0.28125 0  0.875 0.28125 0  0.90625 0.28125 0  0.9375 0.28125 0  0.96875 0.28125 0  1 0.28125 0  1.03125 0.28125 0  1.0625 0.28125 0  1.09375 0.28125 0  1.125 0.28125 0  1.15625 0.28125 0  1.1875 0.28125 0  1.21875 0.28125 0  1.25 0.28125 0  1.28125 0.28125 0  1.3125 0.28125 0  1.34375 0.28125 0  1.375 0.28125 0  1.40625 0.28125 0  1.4375 0.28125 0  1.46875 0.28125 0  1.5 0.28125 0  0 0.3125 0  0.03125 0.3125 0  0.0625 0.3125 0  0.09375 0.3125 0  0.125 0.3125 0  0.15625 0.3125 0  0.1875 0.3125 0  0.21875 0.3125 0  0.25 0.3125 0  0.28125 0.3125 0  0.3125 0.3125 0  0.34375 0.3125 0  0.375 0.3125 0  0.40625 0.3125 0  0.4375 0.3125 0  0.46875 0.3125 0  0.5 0.3125 0  0.53125 0.3125 0  0.5625 0.3125 0  0.59375 0.3125 0  0.625 0.3125 0  0.65625 0.3125 0  0.6875 0.3125 0  0.71875 0.3125 0  0.75 0.3125 0  0.78125 0.3125 0  0.8125 0.3125 0  0.84375 0.3125 0  0.875 0.3125 0  0.90625 0.3125 0  0.9375 0.3125 0  0.96875 0.3125 0  1 0.3125 0  1.03125 0.3125 0  1.0625 0.3125 0  1.09375 0.3125 0  1.125 0.3125 0  1.15625 0.3125 0  1.1875 0.3125 0  1.21875 0.3125 0  1.25 0.3125 0  1.28125 0.3125 0  1.3125 0.3125 0  1.34375 0.3125 0  1.375 0.3125 0  1.40625 0.3125 0  1.4375 0.3125 0  1.46875 0.3125 0  1.5 0.3125 0  0 0.34375 0  0.03125 0.34375 0  0.0625 0.34375 0  0.09375 0.34375 0  0.125 0.34375 0  0.15625 0.34375 0  0.1875 0.34375 0  0.21875 0.34375 0  0.25 0.34375 0  0.28125 0.34375 0  0.3125 0.34375 0  0.34375 0.34375 0  0.375 0.34375 0  0.40625 0.34375 0  0.4375 0.34375 0  0.46875 0.34375 0  0.5 0.34375 0  0.53125 0.34375 0  0.5625 0.34375 0  0.59375 0.34375 0  0.625 0.34375 0  0.65625 0.34375 0  0.6875 0.34375 0  0.71875 0.34375 0  0.75 0.34375 0  0.78125 0.34375 0  0.8125 0.34375 0  0.84375 0.34375 0  0.875 0.34375 0  0.90625 0.34375 0  0.9375 0.34375 0  0.96875 0.34375 0  1 0.34375 0  1.03125 0.34375 0  1.0625 0.34375 0  1.09375 0.34375 0  1.125 0.34375 0  1.15625 0.34375 0  1.1875 0.34375 0  1.21875 0.34375 0  1.25 0.34375 0  1.28125 0.34375 0  1.3125 0.34375 0  1.34375 0.34375 0  1.375 0.34375 0  1
[...]
<PointData  Scalars="f_81"> 
<DataArray  type="Float64"  Name="f_81"  format="ascii">7.2676810899386690e-01  3.0470071405395038e-01  3.0071659083402003e-01  3.3450084170540045e-01  3.4806969199002702e-01  3.6296648623714128e-01  3.7477643319311060e-01  3.8449972424596385e-01  3.9271695529517209e-01  4.0001935635455343e-01  4.0685598921507204e-01  4.1350886644509277e-01  4.2013605544010618e-01  4.2681829959879414e-01  4.3359636307633742e-01  4.4049301337799007e-01  4.4752405029422643e-01  4.5470287116982155e-01  4.6204180919804860e-01  4.6955201240726419e-01  4.7724272707236359e-01  4.8512042769248953e-01  4.9318806734628889e-01  5.0144464538076294e-01  5.0988521754093985e-01  5.1850137929439688e-01  5.2728214684742203e-01  5.3621506884636139e-01  5.4528735957166685e-01  5.5448684791415015e-01  5.6380262008762794e-01  5.7322524058994040e-01  5.8274667630621013e-01  5.9235947703169456e-01  6.0205599019032496e-01  6.1182356216347555e-01  6.2164133333380833e-01  6.3145022914269011e-01  6.4115068168156897e-01  6.5044889959568275e-01  6.5902957326828360e-01  6.6579043442915953e-01  6.7075038935066766e-01  6.7010306344833914e-01  6.7018352416755511e-01  6.4182932230186418e-01  6.7270601920273920e-01  7.5404343224517945e-01  3.6264695580991030e-01  1.5763988683036083e+00  3.0036788275384391e-01  5.1927911478394384e-01  4.8855334333342781e-01  5.0646411478400211e-01  5.1647215568684790e-01  5.2221452907499766e-01  5.2567676795532181e-01  5.2713535216317964e-01  5.2737344808772324e-01  5.2691854148926676e-01  5.2611088741326739e-01  5.2513564314035899e-01  5.2408296224496054e-01  5.2299320218343937e-01  5.2188385652432490e-01  5.2076289967304623e-01  5.1963428583457272e-01  5.1849977502292088e-01  5.1735925951766981e-01  5.1621061574687432e-01  5.1504954541769599e-01  5.1386963371476435e-01  5.1266273300714504e-01  5.1141968257329962e-01  5.1013127667421432e-01  5.0878931189559395e-01  5.0738750678521127e-01  5.0592211252203689e-01  5.0439210523198075e-01  5.0279896287315573e-01  5.0114606655982830e-01  4.9943788355970498e-01  4.9767867867010596e-01  4.9587095207113907e-01  4.9401070569180561e-01  4.9208095702040983e-01  4.9002563765482454e-01  4.8772885491638801e-01  4.8490578664315698e-01  4.8115774007231588e-01  4.7557337841678810e-01  4.6776739793188093e-01  4.5566271105595824e-01  4.4180767433810236e-01  4.1352869374646367e-01  4.2216583038202576e-01  4.7699178401911285e-01  1.5450387753826336e-01  1.6438605039008993e+00  1.5532956297906036e-01  5.4662218648487548e-01  4.3102543108105551e-01  4.7862815727011071e-01  4.8301521020737076e-01  4.9023217226268739e-01  4.9476621614524241e-01  4.9740741815827111e-01  4.9888052077203915e-01  4.9967693095183674e-01  5.0014039108085973e-01  5.0045612339277379e-01  5.0071476534052928e-01  5.0095551367832603e-01  5.0119426028514191e-01  5.0143744087079978e-01  5.0168797804664900e-01  5.0194743061605018e-01  5.0221660000429424e-01  5.0249560408857341e-01  5.0278381466774935e-01  5.0307981142033276e-01  5.0338141495024846e-01  5.0368582544615148e-01  5.0398986846130800e-01  5.0429032119198314e-01  5.0458426188957406e-01  5.0486936861258302e-01  5.0514409547061545e-01  5.0540769940498609e-01  5.0566007810846825e-01  5.0590147557705267e-01  5.0613167438724149e-01  5.0634875282663028e-01  5.0654425757379862e-01  5.0669621372874318e-01  5.0674163702296582e-01  5.0655609840476690e-01  5.0584515745303316e-01  5.0421787001403606e-01  5.0079987302014994e-01  4.9537525482682393e-01  4.8608087481744922e-01  4.7603821212684322e-01  4.5380571328963887e-01  4.7568071412391427e-01  5.3370727956854314e-01  2.2386365821735421e-01  1.6529547601585095e+00  1.4860690120217987e-01  5.7446554332835242e-01  4.1772853199805915e-01  4.9055499234219185e-01  4.8337429148643207e-01  4.9319535880353665e-01  4.9705899015039012e-01  4.9959405182350619e-01  5.0085684542407716e-01  5.0142996779409199e-01  5.0165906942394511e-01  5.0173378185498385e-01  5.0174666715596428e-01  5.0173700746259964e-01  5.0172035631330025e-01  5.0170281889501733e-01  5.0168727038678174e-01  5.0167553611588056e-01  5.0166896761868141e-01  5.0166842093461383e-01  5.0167404793667514e-01  5.0168507454869782e-01  5.0169967608786714e-01  5.0171503663129668e-01  5.0172763996079639e-01  5.0173376521358626e-01  5.0173006941645126e-01  5.0171408695077491e-01  5.0168449717546926e-01  5.0164111690477875e-01  5.0158462128527248e-01  5.0151611279248709e-01  5.0143621144234141e-01  5.0134375028637368e-01  5.0123095797807782e-01  5.0107652816197923e-01  5.0081874484576816e-01  5.0033647273775883e-01  4.9934596134787096e-01  4.9748141853747707e-01  4.9392831669305681e-01  4.8855922684146941e-01  4.7967955534950907e-01  4.7039382651956363e-01  4.4900803206555112e-01  4.7083630721144792e-01  5.2814272101268922e-01  2.1221982457805647e-01  1.6579891360349868e+00  1.4945461556093387e-01  5.7707385357720176e-01  4.1283109066039586e-01  4.9398466471293123e-01  4.7911788648264403e-01  4.9235576817110166e-01  4.9505241003045836e-01  4.9782021332614995e-01  4.9904170294567773e-01  4.9964429591744103e-01  4.9990228771062406e-01  5.0000959803414913e-01  5.0005537743136519e-01  5.0007774298214336e-01  5.0009162030773580e-01  5.0010304456997312e-01  5.0011522721345314e-01  5.0013067228790986e-01  5.0015169703440121e-01  5.0018030140476066e-01  5.0021778458643162e-01  5.0026428351422636e-01  5.0031841330591331e-01  5.0037719175734496e-01  5.0043638570294358e-01  5.0049126842125669e-01  5.0053756802196447e-01  5.0057226150655854e-01  5.0059393962219034e-01  5.0060270033978160e-01  5.0059967327350041e-01  5.0058640748603966e-01  5.0056386379920081e-01  5.0053110938857370e-01  5.0048058726592926e-01  5.0039138740855416e-01  5.0020281874544703e-01  4.9979657260087473e-01  4.9889580815299495e-01  4.9715065511149897e-01  4.9377451115662613e-01  4.8868832608756857e-01  4.8022846169659739e-01  4.7155864807251047e-01  4.5089510314497738e-01  4.7349892777422126e-01  5.3186897330490379e-01  2.1503498354131229e-01  1.6617190905835062e+00  1.5130083645585973e-01  5.7894566262430591e-01  4.1359641673330899e-01  4.9549671888611718e-01  4.7840026723346885e-01  4.9342409108911284e-01  4.9494011509546781e-01  4.9801194126678977e-01  4.9907605644172826e-01  4.9965896147951305e-01  4.9987299806476676e-01  4.9994222294225465e-01  4.9994915563215986e-01  4.9993235778214495e-01  4.9990675427932590e-01  4.9987895539992655e-01  4.9985309190792027e-01  4.9983299146547916e-01  4.9982261705411740e-01  4.9982575166165355e-01  4.9984525740625452e-01  4.9988212282328826e-01  4.9993466103086526e-01  4.9999824558547418e-01  5.0006593583877523e-01  5.0012998902512240e-01  5.0018372859724480e-01  5.0022295952120144e-01  5.0024640263782083e-01  5.0025520818879621e-01  5.0025194390441496e-01  5.0023954140544735e-01  5.0022004948331311e-01  5.0019327812349790e-01  5.0015215689273207e-01  5.0007620398656505e-01  4.9990548563674009e-01  4.9952359040424871e-01  4.9865816895580617e-01  4.9696928694649706e-01  4.9368709545870232e-01  4.8875899430247993e-01  4.8054154906387886e-01  4.7220951006247880e-01  4.5193494050284788e-01  4.7492315638862026e-01  5.3424250137884544e-01  2.1664912475257961e-01  1.6645268670654396e+00  1.5245004852279140e-01  5.7980661373277032e-01  4.1393313126081799e-01  4.9576787468064915e-01  4.7836687065380107e-01  4.9373546338308538e-01  4.9470111681322732e-01  4.9805291766139875e-01  4.9898461803874605e-01  4.9959841991953213e-01  4.9979519006266104e-01  4.9985734903008561e-01  4.9985247027095275e-01  4.9982166838363168e-01  4.9977967031444753e-01  4.9973377939542457e-01  4.9968928550865505e-01  4.9965183553379267e-01  4.9962787041492018e-01  4.9962407766321520e-01  4.9964598502907753e-01  4.9969604816699631e-01  4.9977193391234342e-01  4.9986580163255001e-01  4.9996553420627382e-01  5.0005793297913292e-01  5.0013250059354197e-01  5.0018385896362327e-01  5.0021189915095898e-01  5.0022023341633570e-01  5.0021408568203940e-01  5.0019853974797146e-01  5.0017704996347834e-01  5.0015014667186264e-01  5.0011099808580328e-01  5.0003911536881873e-01  4.9987461239269326e-01  4.9950164269193348e-01  4.9864979266634291e-01  4.9698406914388399e-01  4.9374362555011675e-01  4.8889174265151347e-01  4.8079876217130968e-01  4.7265915559649829e-01  4.5263404867803109e-01  4.7592780019213748e-01  5.3601568661552146e-01  2.1758140095766884e-01  1.6666337966990052e+00  1.5316577838033807e-01  5.8039485821713865e-01  4.1421571674040047e-01  4.9602523798577763e-01  4.7849976115936932e-01  4.9384159965153107e-01  4.9468895053415851e-01  4.9815728325070857e-01  4.9900161867959902e-01  4.9964847291946568e-01  4.9982620912874848e-01  4.9988300309715805e-01  4.9986447790786087e-01  4.9981714515804776e-01  4.9975448402151862e-01  4.9968447383367320e-01  4.9961368117740229e-01  4.9955022091072476e-01  4.9950457439836793e-01  4.9948858056697482e-01  4.9951283295979387e-01  4.9958285852863149e-01  4.9969533750458367e-01  4.9983616375289724e-01  4.9998310362100512e-01  5.0011301153327126e-01  5.0020970875284099e-01  5.0026770464114201e-01  5.0029075338153772e-01  5.0028767238127747e-01  5.0026822608160071e-01  5.0024052203196234e-01  5.0020953952993830e-01  5.0017624132904448e-01  5.0013359844119321e-01  5.0006065086176987e-01  4.9989706550624025e-01  4.9952684803154951e-01  4.9868030372896821e-01  4.9702501428127427e-01  4.9380564501187091e-01  4.8899613903256250e-01  4.8097894204611896e-01  4.7296639839440724e-01  4.5312387128301324e-01  4.7666968987590497e-01  5.3745422774726603e-01  2.1846441430129473e-01  1.6682337795597399e+00  1.5357742706919930e-01  5.8079074384636753e-01  4.1435266270770732e-01  4.9615111366759335e-01  4.7852570063982913e-01  4.9386256477464657e-01  4.9469907525267171e-01  4.9818992419029517e-01  4.9900682672154212e-01  4.9967848287385519e-01  4.9984482711776562e-01  4.9990138654812943e-01  4.9987221372371521e-01  4.9981027267623607e-01  4.9972589285688745e-01  4.9962756166481920e-01  4.9952253575389682e-01  4.9942233103408346e-01  4.9934414272228678e-01  4.9930889856589089e-01  4.9933720045494301e-01  4.9944130991814151e-01  4.9961651958286307e-01  4.9983584884530868e-01  5.0005647069875858e-01  5.0023711510439317e-01  5.0035460046011315e-01  5.0040777033358552e-01  5.0041039193795789e-01  5.0038117058798037e-01  5.0033667159228112e-01  5.0028837546273863e-01  5.0024214404011702e-01  5.0019844848235406e-01  5.0014923680694612e-01  5.0007246963767193e-01  4.9990695433020682e-01  4.9953616845722953e-01  4.9869060627730927e-01  4.9703922978568499e-01  4.9383044305093338e-01  4.8904555415810919e-01  4.8107750521553727e-01  4.7315371484178065e-01  4.5344848515727476e-01  4.7719452559363140e-01  5.3855598577088282e-01  2.1913337258927146e-01  1.6694830553061932e+00  1.5381591295789990e-01  5.8109202941132854e-01  4.1442059403087100e-01  4.9623445020519946e-01  4.7853623383606964e-01  4.9388710528774116e-01  4.9471355540748863e-01  4.9821121898128046e-01  4.9902958571677480e-01  4.9971374636636007e-01  4.9987612804459802e-01  4.9993365837730896e-01  4.9989536418362485e-01  4.9981844806570036e-01  4.9970814345936437e-01  4.9957264689275427e-01  4.9941765206101596e-01  4.9926015097276888e-01  4.9912717931059536e-01  4.9905560644399355e-01  4.9908658169270970e-01  4.9924692854479696e-01  4.9953029849121017e-01  4.9988151138566789e-01  5.0021405633151383e-01  5.0045472945466229e-01  5.0057711288595275e-01  5.0059776743810791e-01  5.0055278515648971e-01  5.0047714065797955e-01  5.0039527170923603e-01  5.0032040177758719e-01  5.0025699048061401e-01  5.0020310914114918e-01  5.0014842076582355e-01  5.0006910634231971e-01  4.9990279753434197e-01  4.9953229280678479e-01  4.9868811738014929e-01  4.9704006555658831e-01  4.9383934450292000e-01  4.8907245145957640e-01  4.8114138061078537e-01  4.7328542619284109e-01  4.5368824301952998e-01  4.7759737146363967e-01  5.3944675849420864e-01  2.1969217317484413e-01  1.6704770977530694e+00  1.5395279100207951e-01  5.8133961467911444e-01  4.1445793159091854e-01  4.9630654469912666e-01  4.7854818557086687e-01  4.9391613841644944e-01  4.9473284213743046e-01  4.9824231743033398e-01  4.9906807985538848e-01  4.9976102665320732e-01  4.9992709264948748e-01  4.9998824256145741e-01  4.9994523323266493e-01  4.9985530718695453e-01  4.9971697428302247e-01  4.9953536190522529e-01  4.9931008016687312e-01  4.9906729549695378e-01  4.9884262374794608e-01  4.9870385165271308e-01  4.9873244565904123e-01  4.9898667538702479e-01  4.9946192212638801e-01  5.0003621598659032e-01  5.0052804852149957e-01  5.0081435109104733e-01  5.0088928048494674e-01  5.0082064580895269e-01  5.0068684133267116e-01  5.0054297513124069e-01  5.0041685133518321e-01  5.0031706502954676e-01  5.0024176784035024e-01  5.0018373765349711e-01  5.0012902061503217e-01  5.0005160867409093e-01  4.9988799607547418e-01  4.9952047384129916e-01  4.9867972965823898e-01  4.9703621661762909e-01  4.9384344754656523e-01  4.8909166227255713e-01  4.8119066350204626e-01  4.7338897183433243e-01  4.5387797391814327e-01  4.7791952831684770e-01  5.4017871322712308e-01  2.2015965704305029e-01  1.6712695885743813e+00  1.5402617696962442e-01  5.8154798703839339e-01  4.1447922659322406e-01  4.9637277097617821e-01  4.7856218765515540e-01  4.9394954701104493e-01  4.9476002939547592e-01  4.9828421613681156e-01  4.9911902498397887e-01  4.9982428880335750e-01  5.0000162874135534e-01  5.0007315743769387e-01  5.0003499718748035e-01  4.9994076338010723e-01  4.9978056297051693e-01  4.9955066492024341e-01  4.9923879705497642e-01  4.9888074780367925e-01  4.9850598004490204e-01  4.9825010231412087e-01  4.9825509728440392e-01  4.9866199884435858e-01  4.9948616606771717e-01  5.0043238307008808e-01  5.0111437385259028e-01  5.0135326308911810e-01  5.0125109305593207e-01  5.0099640345582774e-01  5.0072795899345235e-01  5.0050924141410524e-01  5.0035226607363437e-01  5.0024723295745466e-01  5.0017858060813847e-01  5.0013113620678162e-01  5.0008712233196062e-01  5.0001908389157468e-01  4.9986328492938037e-01  4.9950225990340369e-01  4.9866735344157748e-01  4.9702981977759481e-01  4.9384524991431422e-01  4.8910669600853812e-01  4.8123068868918006e-01  4.7347294056953088e-01  4.5403063931032744e-01  4.7817933710116323e-01  5.4077901782416637e-01  2.2054699763943739e-01  1.6718910094628692e+00  1.5405824331746615e-01  5.8172113425869898e-01  4.1449015643115783e-01  4.9643246465691954e-01  4.7857712788608497e-01  4.9398536300672657e-01  4.9479246494006451e-01  4.9833287283197064e-01  4.9917976026612021e-01  4.9990304145679348e-01  5.0009997920183713e-01  5.0019347442934237e-01  5.0017677244070469e-01  5.0009870485316021e-01  4.9993971875428195e-01  4.9968058396179477e-01  4.9929116552897818e-01  4.9879900628729668e-01  4.9819701157486485e-01  4.9775143312336934e-01  4.9764368807676951e-01  4.9830191870142160e-01  4.9977724805982737e-01  5.0131368388087538e-01  5.0211922881463322e-01  5.0202364557513024e-01  5.0148643796999148e-01  5.0092267630060183e-01  5.0051055475710216e-01  5.0026201487541522e-01  5.0013260581242014e-01  5.0007327898036269e-01  5.0004905037514391e-01  5.0003764864519684e-01  5.0002052385769780e-01  4.9997181091340998e-01  4.9982985727161749e-01  4.9947898167587151e-01  4.9865209019277701e-01  4.9702165466895315e-01  4.9384528610852779e-01  4.8911827820189396e-01  4.8126284907116773e-01  4.7354034430259462e-01  4.5415189624280883e-01  4.7838592257115936e-01  5.4126130963821706e-01  2.2085990135236311e-01  1.6723602596605998e+00  1.5406414316941025e-01  5.8185956529490790e-01  4.1449352837645337e-01  4.9648346661170839e-01  4.7859095128950618e-01  4.9401987582585793e-01  4.9482572434827310e-01  4.9838314846540888e-01  4.9924487898762621e-01  4.9999099229404648e-01  5.0021584378244899e-01  5.0034533995741115e-01  5.0037247717783928e-01  5.0034424279425194e-01  5.0023441292056592e-01  5.0000864456110805e-01  4.9961530213265642e-01  4.9903539633646044e-01  4.9820071954187711e-01  4.9750760943771644e-01  4.9702564973488467e-01  4.9805009780949899e-01  5.0061527406439221e-01  5.0310300984753087e-01  5.0373096800393380e-01  5.0255545564643822e-01  5.0117271192672763e-01  5.0025101265281269e-01  4.9980925838651563e-01  4.9967869793984809e-01  4.9969969368558331e-01  4.9977278225540217e-01  4.9984796521540897e-01  4.9990520666108196e-01  4.9993337031064344e-01  4.9991400222425358e-01  4.9979120173956110e-01  4.9945321146710120e-01  4.9863562640055153e-01  4.9701267053767140e-01  4.9384395255939345e-01  4.8912664709383030e-01  4.8128754603418866e-01  4.7359239253421093e-01  4.5424455401088870e-01  4.7854424310973692e-01  5.4163222412379086e-01  2.2110076315040830e-01  1.6726899041710797e+00  1.5405507031987936e-01  5.8196269956415714e-01  4.1449133145176753e-01  4.9652367389803237e-01  4.7860174840770581e-01  4.9404930659314528e-01  4.9485502448474522e-01  4.9842834430217370e-01  4.9930517000064772e-01  5.0007538151519926e-01  5.0033232794325622e-01  5.0050720986813868e-01  5.0059686121079672e-01  5.0065338992783970e-01  5.0065465618614324e-01  5.0056609881141989e-01  5.0032488277126885e-01  4.9984824362802216e-01  4.9898314605172206e-01  4.9793678895493537e-01  4.9626229402600341e-01  4.9735956054312136e-01  5.0232901085501980e-01  5.0674579822926458e-01  5.0632988552911706e-01  5.0262962539357925e-01  4.9967690328750197e-01  4.9861835124761250e-01  4.9848990093491224e-01  4.9873820172741778e-01  4.9907666501433179e-01  4.9937768297610369e-01  4.9960336440622688e-01  4.9975493440538721e-01  4.9984047406843657e-01  4.9985567233438633e-01  4.9975394320020577e-01  4.9942924409223144e-01  4.9862064847289883e-01  4.9700445838079854e-01  4.9384210427828223e-01  4.8913233462575834e-01  4.8130524767976990e-01  4.7362994216239451e-01  4.5431044307002688e-01  4.7865741532614886e-01  5.4189505271277782e-01  2.2127079331950722e-01  1.6728882391155135e+00  1.5403897731833707e-01  5.8202953141985259e-01  4.1448494206538189e-01  4.9655109268780129e-01  4.7860768258703107e-01  4.9406989525884587e-01  4.9487521432684378e-01  4.9846051072480857e-01  4.9934869489938166e-01  5.0013798308139323e-01  5.0042158698861339e-01  5.0063649890104223e-01  5.0078566747127928e-01  5.0093164707279969e-01  5.0106796543192678e-01  5.0118395299205620e-01  5.0125220886614930e-01  5.0123374317527336e-01  5.0107322994743142e-01  5.0080042508487921e-01  4.9920245824708315e-01  4.9900231699103309e-01  5.0618358954590270e-01  5.1676709542275556e-01  5.1466947916592631e-01  4.9959433288953770e-01  4.9722330751230664e-01  4.9619961335649632e-01  4.9683041244171988e-01  4.9769511691453006e-01  4.9844876479653250e-01  4.9900814717965392e-01  4.9938871550734193e-01  4.9963026215527084e-01  4.9976717790258190e-01  4.9981161017858777e-01  4.9972677871948629e-01  4.9941223241556537e-01  4.9861019215819524e-01  4.9699876463300652e-01  4.9384068869578940e-01  4.8913589518154243e-01  4.8131633911476568e-01  4.7365352017622886e-01  4.5435065904666339e-01  4.7872723696530312e-01  5.4205109617817548e-01  2.2137034966145921e-01  1.6729600710896282e+00  1.5402067149435383e-01  5.8205904341019010e-01  4.1447522351067040e-01  4.9656414711203178e-01  4.7860737385417496e-01  4.9407870406827503e-01  4.9488214130663222e-01  4.9847292714268937e-01  4.9936485150493765e-01  5.0016156258779476e-01  5.0045525218782361e-01  5.0068582219073310e-01  5.0085885950142028e-01  5.0104237565450305e-01  5.0123928472313950e-01  5.0145707911242887e-01  5.0170754970673992e-01  5.0204226048445388e-01  5.0261550846463032e-01  5.0373872495666516e-01  5.0464814058888918e-01  5.0227215027832717e-01  5.2718149660069291e-01  5.2361294523189728e-01  5.2571641379163259e-01  5.2025655448589292e-01  4.9126708883556303e-01  4.9455168118742804e-01  4.9581982435194200e-01  4.9715007942745559e-01  4.9815063892620409e-01  4.9884590331066414e-01  4.9930054095216136e-01  4.9958205829645941e-01  4.9974030838167055e-01  4.9979611569308746e-01  4.9971747786607401e-01  4.9940648621709127e-01  4.9860667417227783e-01  4.9699693385529398e-01  4.9384042691377644e-01  4.8913773341626149e-01  4.8132107636486332e-01  4.7366341135627826e-01  4.5436579933233717e