<?xml version="1.0"?>
<VTKFile type="UnstructuredGrid"  version="0.1"  >
<UnstructuredGrid>
<Piece  NumberOfPoints="1617" NumberOfCells="3072">
<Points>
<DataArray  type="Float64"  NumberOfComponents="3"  format="ascii">0 0 0  0.03125 0 0  0.0625 0 0  0.09375 0 0  0.125 0 0  0.15625 0 0  0.1875 0 0  0.21875 0 0  0.25 0 0  0.28125 0 0  0.3125 0 0  0.34375 0 0  0.375 0 0  0.40625 0 0  0.4375 0 0  0.46875 0 0  0.5 0 0  0.53125 0 0  0.5625 0 0  0.59375 0 0  0.625 0 0  0.65625 0 0  0.6875 0 0  0.71875 0 0  0.75 0 0  0.78125 0 0  0.8125 0 0  0.84375 0 0  0.875 0 0  0.90625 0 0  0.9375 0 0  0.96875 0 0  1 0 0  1.03125 0 0  1.0625 0 0  1.09375 0 0  1.125 0 0  1.15625 0 0  1.1875 0 0  1.21875 0 0  1.25 0 0  1.28125 0 0  1.3125 0 0  1.34375 0 0  1.375 0 0  1.40625 0 0  1.4375 0 0  1.46875 0 0  1.5 0 0  0 0.03125 0  0.03125 0.03125 0  0.0625 0.03125 0  0.09375 0.03125 0  0.125 0.03125 0  0.15625 0.03125 0  0.1875 0.03125 0  0.21875 0.03125 0  0.25 0.03125 0  0.28125 0.03125 0  0.3125 0.03125 0  0.34375 0.03125 0  0.375 0.03125 0  0.40625 0.03125 0  0.4375 0.03125 0  0.46875 0.03125 0  0.5 0.03125 0  0.53125 0.03125 0  0.5625 0.03125 0  0.59375 0.03125 0  0.625 0.03125 0  0.65625 0.03125 0  0.6875 0.03125 0  0.71875 0.03125 0  0.75 0.03125 0  0.78125 0.03125 0  0.8125 0.03125 0  0.84375 0.03125 0  0.875 0.03125 0  0.90625 0.03125 0  0.9375 0.03125 0  0.96875 0.03125 0  1 0.03125 0  1.03125 0.03125 0  1.0625 0.03125 0  1.09375 0.03125 0  1.125 0.03125 0  1.15625 0.03125 0  1.1875 0.03125 0  1.21875 0.03125 0  1.25 0.03125 0  1.28125 0.03125 0  1.3125 0.03125 0  1.34375 0.03125 0  1.375 0.03125 0  1.40625 0.03125 0  1.4375 0.03125 0  1.46875 0.03125 0  1.5 0.03125 0  0 0.0625 0  0.03125 0.0625 0  0.0625 0.0625 0  0.09375 0.0625 0  0.125 0.0625 0  0.15625 0.0625 0  0.1875 0.0625 0  0.21875 0.0625 0  0.25 0.0625 0  0.28125 0.0625 0  0.3125 0.0625 0  0.34375 0.0625 0  0.375 0.0625 0  0.40625 0.0625 0  0.4375 0.0625 0  0.46875 0.0625 0  0.5 0.0625 0  0.53125 0.0625 0  0.5625 0.0625 0  0.59375 0.0625 0  0.625 0.0625 0  0.65625 0.0625 0  0.6875 0.0625 0  0.71875 0.0625 0  0.75 0.0625 0  0.78125 0.0625 0  0.8125 0.0625 0  0.84375 0.0625 0  0.875 0.0625 0  0.90625 0.0625 0  0.9375 0.0625 0  0.96875 0.0625 0  1 0.0625 0  1.03125 0.0625 0  1.0625 0.0625 0  1.09375 0.0625 0  1.125 0.0625 0  1.15625 0.0625 0  1.1875 0.0625 0  1.21875 0.0625 0  1.25 0.0625 0  1.28125 0.0625 0  1.3125 0.0625 0  1.34375 0.0625 0  1.375 0.0625 0  1.40625 0.0625 0  1.4375 0.0625 0  1.46875 0.0625 0  1.5 0.0625 0  0 0.09375 0  0.03125 0.09375 0  0.0625 0.09375 0  0.09375 0.09375 0  0.125 0.09375 0  0.15625 0.09375 0  0.1875 0.09375 0  0.21875 0.09375 0  0.25 0.09375 0  0.28125 0.09375 0  0.3125 0.09375 0  0.34375 0.09375 0  0.375 0.09375 0  0.40625 0.09375 0  0.4375 0.09375 0  0.46875 0.09375 0  0.5 0.09375 0  0.53125 0.09375 0  0.5625 0.09375 0  0.59375 0.09375 0  0.625 0.09375 0  0.65625 0.09375 0  0.6875 0.09375 0  0.71875 0.09375 0  0.75 0.09375 0  0.78125 0.09375 0  0.8125 0.09375 0  0.84375 0.09375 0  0.875 0.09375 0  0.90625 0.09375 0  0.9375 0.09375 0  0.96875 0.09375 0  1 0.09375 0  1.03125 0.09375 0  1.0625 0.09375 0  1.09375 0.09375 0  1.125 0.09375 0  1.15625 0.09375 0  1.1875 0.09375 0  1.21875 0.09375 0  1.25 0.09375 0  1.28125 0.09375 0  1.3125 0.09375 0  1.34375 0.09375 0  1.375 0.09375 0  1.40625 0.09375 0  1.4375 0.09375 0  1.46875 0.09375 0  1.5 0.09375 0  0 0.125 0  0.03125 0.125 0  0.0625 0.125 0  0.09375 0.125 0  0.125 0.125 0  0.15625 0.125 0  0.1875 0.125 0  0.21875 0.125 0  0.25 0.125 0  0.28125 0.125 0  0.3125 0.125 0  0.34375 0.125 0  0.375 0.125 0  0.40625 0.125 0  0.4375 0.125 0  0.46875 0.125 0  0.5 0.125 0  0.53125 0.125 0  0.5625 0.125 0  0.59375 0.125 0  0.625 0.125 0  0.65625 0.125 0  0.6875 0.125 0  0.71875 0.125 0  0.75 0.125 0  0.78125 0.125 0  0.8125 0.125 0  0.84375 0.125 0  0.875 0.125 0  0.90625 0.125 0  0.9375 0.125 0  0.96875 0.125 0  1 0.125 0  1.03125 0.125 0  1.0625 0.125 0  1.09375 0.125 0  1.125 0.125 0  1.15625 0.125 0  1.1875 0.125 0  1.21875 0.125 0  1.25 0.125 0  1.28125 0.125 0  1.3125 0.125 0  1.34375 0.125 0  1.375 0.125 0  1.40625 0.125 0  1.4375 0.125 0  1.46875 0.125 0  1.5 0.125 0  0 0.15625 0  0.03125 0.15625 0  0.0625 0.15625 0  0.09375 0.15625 0  0.125 0.15625 0  0.15625 0.15625 0  0.1875 0.15625 0  0.21875 0.15625 0  0.25 0.15625 0  0.28125 0.15625 0  0.3125 0.15625 0  0.34375 0.15625 0  0.375 0.15625 0  0.40625 0.15625 0  0.4375 0.15625 0  0.46875 0.15625 0  0.5 0.15625 0  0.53125 0.15625 0  0.5625 0.15625 0  0.59375 0.15625 0  0.625 0.15625 0  0.65625 0.15625 0  0.6875 0.15625 0  0.71875 0.15625 0  0.75 0.15625 0  0.78125 0.15625 0  0.8125 0.15625 0  0.84375 0.15625 0  0.875 0.15625 0  0.90625 0.15625 0  0.9375 0.15625 0  0.96875 0.15625 0  1 0.15625 0  1.03125 0.15625 0  1.0625 0.15625 0  1.09375 0.15625 0  1.125 0.15625 0  1.15625 0.15625 0  1.1875 0.15625 0  1.21875 0.15625 0  1.25 0.15625 0  1.28125 0.15625 0  1.3125 0.15625 0  1.34375 0.15625 0  1.375 0.15625 0  1.40625 0.15625 0  1.4375 0.15625 0  1.46875 0.15625 0  1.5 0.15625 0  0 0.1875 0  0.03125 0.1875 0  0.0625 0.1875 0  0.09375 0.1875 0  0.125 0.1875 0  0.15625 0.1875 0  0.1875 0.1875 0  0.21875 0.1875 0  0.25 0.1875 0  0.28125 0.1875 0  0.3125 0.1875 0  0.34375 0.1875 0  0.375 0.1875 0  0.40625 0.1875 0  0.4375 0.1875 0  0.46875 0.1875 0  0.5 0.1875 0  0.53125 0.1875 0  0.5625 0.1875 0  0.59375 0.1875 0  0.625 0.1875 0  0.65625 0.1875 0  0.6875 0.1875 0  0.71875 0.1875 0  0.75 0.1875 0  0.78125 0.1875 0  0.8125 0.1875 0  0.84375 0.1875 0  0.875 0.1875 0  0.90625 0.1875 0  0.9375 0.1875 0  0.96875 0.1875 0  1 0.1875 0  1.03125 0.1875 0  1.0625 0.1875 0  1.09375 0.1875 0  1.125 0.1875 0  1.15625 0.1875 0  1.1875 0.1875 0  1.21875 0.1875 0  1.25 0.1875 0  1.28125 0.1875 0  1.3125 0.1875 0  1.34375 0.1875 0  1.375 0.1875 0  1.40625 0.1875 0  1.4375 0.1875 0  1.46875 0.1875 0  1.5 0.1875 0  0 0.21875 0  0.03125 0.21875 0  0.0625 0.21875 0  0.09375 0.21875 0  0.125 0.21875 0  0.15625 0.21875 0  0.1875 0.21875 0  0.21875 0.21875 0  0.25 0.21875 0  0.28125 0.21875 0  0.3125 0.21875 0  0.34375 0.21875 0  0.375 0.21875 0  0.40625 0.21875 0  0.4375 0.21875 0  0.46875 0.21875 0  0.5 0.21875 0  0.53125 0.21875 0  0.5625 0.21875 0  0.59375 0.21875 0  0.625 0.21875 0  0.65625 0.21875 0  0.6875 0.21875 0  0.71875 0.21875 0  0.75 0.21875 0  0.78125 0.21875 0  0.8125 0.21875 0  0.84375 0.21875 0  0.875 0.21875 0  0.90625 0.21875 0  0.9375 0.21875 0  0.96875 0.21875 0  1 0.21875 0  1.03125 0.21875 0  1.0625 0.21875 0  1.09375 0.21875 0  1.125 0.21875 0  1.15625 0.21875 0  1.1875 0.21875 0  1.21875 0.21875 0  1.25 0.21875 0  1.28125 0.21875 0  1.3125 0.21875 0  1.34375 0.21875 0  1.375 0.21875 0  1.40625 0.21875 0  1.4375 0.21875 0  1.46875 0.21875 0  1.5 0.21875 0  0 0.25 0  0.03125 0.25 0  0.0625 0.25 0  0.09375 0.25 0  0.125 0.25 0  0.15625 0.25 0  0.1875 0.25 0  0.21875 0.25 0  0.25 0.25 0  0.28125 0.25 0  0.3125 0.25 0  0.34375 0.25 0  0.375 0.25 0  0.40625 0.25 0  0.4375 0.25 0  0.46875 0.25 0  0.5 0.25 0  0.53125 0.25 0  0.5625 0.25 0  0.59375 0.25 0  0.625 0.25 0  0.65625 0.25 0  0.6875 0.25 0  0.71875 0.25 0  0.75 0.25 0  0.78125 0.25 0  0.8125 0.25 0  0.84375 0.25 0  0.875 0.25 0  0.90625 0.25 0  0.9375 0.25 0  0.96875 0.25 0  1 0.25 0  1.03125 0.25 0  1.0625 0.25 0  1.09375 0.25 0  1.125 0.25 0  1.15625 0.25 0  1.1875 0.25 0  1.21875 0.25 0  1.25 0.25 0  1.28125 0.25 0  1.3125 0.25 0  1.34375 0.25 0  1.375 0.25 0  1.40625 0.25 0  1.4375 0.25 0  1.46875 0.25 0  1.5 0.25 0  0 0.28125 0  0.03125 0.28125 0  0.0625 0.28125 0  0.09375 0.28125 0  0.125 0.28125 0  0.15625 0.28125 0  0.1875 0.28125 0  0.21875 0.28125 0  0.25 0.28125 0  0.28125 0.28125 0  0.3125 0.28125 0  0.34375 0.28125 0  0.375 0.28125 0  0.40625 0.28125 0  0.4375 0.28125 0  0.46875 0.28125 0  0.5 0.28125 0  0.53125 0.28125 0  0.5625 0.28125 0  0.59375 0.28125 0  0.625 0.28125 0  0.65625 0.28125 0  0.6875 0.28125 0  0.71875 0.28125 0  0.75 0.28125 0  0.78125 0.28125 0  0.8125 0.28125 0  0.84375 0.28125 0  0.875 0.28125 0  0.90625 0.28125 0  0.9375 0.28125 0  0.96875 0.28125 0  1 0.28125 0  1.03125 0.28125 0  1.0625 0.28125 0  1.09375 0.28125 0  1.125 0.28125 0  1.15625 0.28125 0  1.1875 0.28125 0  1.21875 0.28125 0  1.25 0.28125 0  1.28125 0.28125 0  1.3125 0.28125 0  1.34375 0.28125 0  1.375 0.28125 0  1.40625 0.28125 0  1.4375 0.28125 0  1.46875 0.28125 0  1.5 0.28125 0  0 0.3125 0  0.03125 0.3125 0  0.0625 0.3125 0  0.09375 0.3125 0  0.125 0.3125 0  0.15625 0.3125 0  0.1875 0.3125 0  0.21875 0.3125 0  0.25 0.3125 0  0.28125 0.3125 0  0.3125 0.3125 0  0.34375 0.3125 0  0.375 0.3125 0  0.40625 0.3125 0  0.4375 0.3125 0  0.46875 0.3125 0  0.5 0.3125 0  0.53125 0.3125 0  0.5625 0.3125 0  0.59375 0.3125 0  0.625 0.3125 0  0.65625 0.3125 0  0.6875 0.3125 0  0.71875 0.3125 0  0.75 0.3125 0  0.78125 0.3125 0  0.8125 0.3125 0  0.84375 0.3125 0  0.875 0.3125 0  0.90625 0.3125 0  0.9375 0.3125 0  0.96875 0.3125 0  1 0.3125 0  1.03125 0.3125 0  1.0625 0.3125 0  1.09375 0.3125 0  1.125 0.3125 0  1.15625 0.3125 0  1.1875 0.3125 0  1.21875 0.3125 0  1.25 0.3125 0  1.28125 0.3125 0  1.3125 0.3125 0  1.34375 0.3125 0  1.375 0.3125 0  1.40625 0.3125 0  1.4375 0.3125 0  1.46875 0.3125 0  1.5 0.3125 0  0 0.34375 0  0.03125 0.34375 0  0.0625 0.34375 0  0.09375 0.34375 0  0.125 0.34375 0  0.15625 0.34375 0  0.1875 0.34375 0  0.21875 0.34375 0  0.25 0.34375 0  0.28125 0.34375 0  0.3125 0.34375 0  0.34375 0.34375 0  0.375 0.34375 0  0.40625 0.34375 0  0.4375 0.34375 0  0.46875 0.34375 0  0.5 0.34375 0  0.53125 0.34375 0  0.5625 0.34375 0  0.59375 0.34375 0  0.625 0.34375 0  0.65625 0.34375 0  0.6875 0.34375 0  0.71875 0.34375 0  0.75 0.34375 0  0.78125 0.34375 0  0.8125 0.34375 0  0.84375 0.34375 0  0.875 0.34375 0  0.90625 0.34375 0  0.9375 0.34375 0  0.96875 0.34375 0  1 0.34375 0  1.03125 0.34375 0  1.0625 0.34375 0  1.09375 0.34375 0  1.125 0.34375 0  1.15625 0.34375 0  1.1875 0.34375 0  1.21875 0.34375 0  1.25 0.34375 0  1.28125 0.34375 0  1.3125 0.34375 0  1.34375 0.34375 0  1.375 0.34375 0  1
[...]
<PointData  Scalars="f_81"> 
<DataArray  type="Float64"  Name="f_81"  format="ascii">3.1170759842554607e-01  6.6984805575686091e-01  6.6959226948442008e-01  6.7834400969678388e-01  6.8609067798631695e-01  6.8625646798396223e-01  6.8113958539729491e-01  6.7324648358752714e-01  6.6415025593585630e-01  6.5465285685229158e-01  6.4508598077383117e-01  6.3556974308480196e-01  6.2614493153859141e-01  6.1682486793663593e-01  6.0761340606292613e-01  5.9851058280641845e-01  5.8951429104771957e-01  5.8062073213680565e-01  5.7182451099865994e-01  5.6311866776620234e-01  5.5449478728721469e-01  5.4594328492614541e-01  5.3745393619247317e-01  5.2901666936436964e-01  5.2062256994079303e-01  5.1226496797763121e-01  5.0394041842820669e-01  4.9564937142443083e-01  4.8739637836796768e-01  4.7918976643221700e-01  4.7104089184503073e-01  4.6296295033356349e-01  4.5497016074242874e-01  4.4707548953712362e-01  4.3929341821310680e-01  4.3162802336439682e-01  4.2410627722734834e-01  4.1667632953500988e-01  4.0950316863639014e-01  4.0209110621117006e-01  3.9580069045320254e-01  3.8646481260270871e-01  3.8518462853893631e-01  3.5692383577757786e-01  3.9556804941264323e-01  2.2452727721033619e-01  5.4482589015517091e-01  -2.8782720130746409e-01  1.3352122351155349e+00  1.5598717593623029e-01  4.7440074246186842e-01  4.3027469296501186e-01  4.2669636207218381e-01  4.4786269246011357e-01  4.6155391302393101e-01  4.6889150262718271e-01  4.7296881020634191e-01  4.7556853605894128e-01  4.7760775532053823e-01  4.7945090592093653e-01  4.8121977827848206e-01  4.8295091733127560e-01  4.8465529281019976e-01  4.8633716334026600e-01  4.8799937075287425e-01  4.8964465589376360e-01  4.9127585379468969e-01  4.9289572928783615e-01  4.9450665052467252e-01  4.9611018590856354e-01  4.9770670705767145e-01  4.9929509213100670e-01  5.0087262054176440e-01  5.0243511970591037e-01  5.0397736807908411e-01  5.0549369039170655e-01  5.0697862484387446e-01  5.0842752417808101e-01  5.0983696818814606e-01  5.1120495650131914e-01  5.1253080126803863e-01  5.1381506063683491e-01  5.1505868523282372e-01  5.1626419786321642e-01  5.1743051316553601e-01  5.1856636251729460e-01  5.1964754541008862e-01  5.2073461743882132e-01  5.2161088880358475e-01  5.2277288884140638e-01  5.2238998875305764e-01  5.2441633979397528e-01  5.1413783498867227e-01  5.2566264658602413e-01  4.5083184351006061e-01  5.6989516106728833e-01  1.5183307661715903e-01  1.7451731824947045e+00  2.0345061315321625e-01  5.2137075855521264e-01  4.7174382239474161e-01  4.5955953399729693e-01  4.8426600989779733e-01  4.9669695253248897e-01  5.0210164760043285e-01  5.0413436846159798e-01  5.0468869008529482e-01  5.0471704929402961e-01  5.0458997895080915e-01  5.0442366834728547e-01  5.0424824397456258e-01  5.0407051039481232e-01  5.0389178400143853e-01  5.0371230637214115e-01  5.0353211145729637e-01  5.0335111529529630e-01  5.0316906973239461e-01  5.0298550864904257e-01  5.0279971186726458e-01  5.0261069860214302e-01  5.0241725656788527e-01  5.0221800950378481e-01  5.0201152260033743e-01  5.0179644135876988e-01  5.0157164949859101e-01  5.0133641846803012e-01  5.0109051129321358e-01  5.0083420692501335e-01  5.0056825778640091e-01  5.0029372507281666e-01  5.0001200522985700e-01  4.9972414540181226e-01  4.9943249029398024e-01  4.9913510925630222e-01  4.9884222281285540e-01  4.9852530118814864e-01  4.9826345039611186e-01  4.9779517679931101e-01  4.9777543022618104e-01  4.9594193371414980e-01  4.9764819717830938e-01  4.8434994368136830e-01  5.0255254533791993e-01  4.1217399852247666e-01  5.7445969807012698e-01  1.3083128535033081e-01  1.5960713746412822e+00  2.0334681462559939e-01  5.1589734660601949e-01  4.6614888053611753e-01  4.5271033832753244e-01  4.7980574753494243e-01  4.9051168561455388e-01  4.9579922566316487e-01  4.9788974485351384e-01  4.9864206620656076e-01  4.9891260908626001e-01  4.9904901153176240e-01  4.9915213540262421e-01  4.9924629608396698e-01  4.9933701083137838e-01  4.9942552734371853e-01  4.9951231792041423e-01  4.9959775192869199e-01  4.9968217725588687e-01  4.9976587105508452e-01  4.9984895268991647e-01  4.9993127870040460e-01  5.0001234583745302e-01  5.0009122348209667e-01  5.0016654982694608e-01  5.0023662651824929e-01  5.0029963057199356e-01  5.0035391910403715e-01  5.0039834729062516e-01  5.0043248983157840e-01  5.0045667937714133e-01  5.0047188187462333e-01  5.0047939428725108e-01  5.0048075321134167e-01  5.0047696243474527e-01  5.0047012761063592e-01  5.0045794596532311e-01  5.0044996765680516e-01  5.0041782184753247e-01  5.0043809506143555e-01  5.0025708582093698e-01  5.0050881042044315e-01  4.9901138398221567e-01  5.0090426904253271e-01  4.8845827797534802e-01  5.0619584077949442e-01  4.1948724743120347e-01  5.7817276571630249e-01  1.3357782618503394e-01  1.6335398677294168e+00  2.0561328334319784e-01  5.1852781310554064e-01  4.6936865107686654e-01  4.5532445933549998e-01  4.8224752192885639e-01  4.9158025674264411e-01  4.9702245152377356e-01  4.9893869912189803e-01  4.9961486601776500e-01  4.9980517766509741e-01  4.9987105139225813e-01  4.9990257493477430e-01  4.9992470850407023e-01  4.9994421146444057e-01  4.9996309292624019e-01  4.9998219539003080e-01  5.0000208803332169e-01  5.0002327753960030e-01  5.0004619091304925e-01  5.0007106744220187e-01  5.0009781225697869e-01  5.0012585138418064e-01  5.0015400357411921e-01  5.0018044033007969e-01  5.0020280448297250e-01  5.0021854298669532e-01  5.0022542357586142e-01  5.0022207963302046e-01  5.0020835142793862e-01  5.0018526445768308e-01  5.0015469883470243e-01  5.0011885093510688e-01  5.0007995379246351e-01  5.0003944875162643e-01  4.9999957197526734e-01  4.9995802931478750e-01  4.9992405347868885e-01  4.9986928856814966e-01  4.9986973982928462e-01  4.9967228667379010e-01  4.9991289844722242e-01  4.9840618634215966e-01  5.0034055609338302e-01  4.8789979566461217e-01  5.0601982733192741e-01  4.1956772230999578e-01  5.7894687854406290e-01  1.3774720626110548e-01  1.6319329721882376e+00  2.0646949251718288e-01  5.2006059324955345e-01  4.7069300133514136e-01  4.5618152320700850e-01  4.8269436291741136e-01  4.9168800598510465e-01  4.9733138366249385e-01  4.9909138679154474e-01  4.9976936894486479e-01  4.9993585138597341e-01  4.9998587084632190e-01  4.9999548745399386e-01  4.9999573190178814e-01  4.9999464529885235e-01  4.9999501844922678e-01  4.9999805476682269e-01  5.0000462790606404e-01  5.0001566108241502e-01  5.0003206409582124e-01  5.0005455635248930e-01  5.0008341097785824e-01  5.0011814498694918e-01  5.0015718123566910e-01  5.0019767477007071e-01  5.0023565046929919e-01  5.0026662113722276e-01  5.0028664596723493e-01  5.0029346332905633e-01  5.0028712275934561e-01  5.0026979036717845e-01  5.0024493671570569e-01  5.0021630077544721e-01  5.0018729085244584e-01  5.0016005888979220e-01  5.0013712015945444e-01  5.0011617448216139e-01  5.0010617641425259e-01  5.0007852621934923e-01  5.0010855988683367e-01  4.9994321647903933e-01  5.0021733075289931e-01  4.9874780155093557e-01  5.0072036998296843e-01  4.8835325817714376e-01  5.0653334339676925e-01  4.2035138170200342e-01  5.7987582677899219e-01  1.3940501058922411e-01  1.6359314853886477e+00  2.0699516533393400e-01  5.2081783661519621e-01  4.7110235488893626e-01  4.5625216712971844e-01  4.8261415926831686e-01  4.9162043467447558e-01  4.9731166864372151e-01  4.9900691578201828e-01  4.9973691885625443e-01  4.9990680773502266e-01  4.9996621683768577e-01  4.9997651474374960e-01  4.9997746935593812e-01  4.9997623024080146e-01  4.9997628380622844e-01  4.9997901965473540e-01  4.9998569004830395e-01  4.9999789751737711e-01  5.0001726815540293e-01  5.0004539879773924e-01  5.0008336883865878e-01  5.0013110911603154e-01  5.0018663486161052e-01  5.0024556154185829e-01  5.0030116408515402e-01  5.0034551225378865e-01  5.0037168807698040e-01  5.0037619377317233e-01  5.0036003398558937e-01  5.0032787540431667e-01  5.0028609574116234e-01  5.0024083570707278e-01  5.0019700114138899e-01  5.0015738436956869e-01  5.0012449150230165e-01  5.0009571166030797e-01  5.0007938885901804e-01  5.0004662142549039e-01  5.0007171115976812e-01  4.9990238532204284e-01  5.0017087199104449e-01  4.9869845890510472e-01  5.0066367562589309e-01  4.8830247944949629e-01  5.0648088063243790e-01  4.2041527310134663e-01  5.7994024792185894e-01  1.4028024594522706e-01  1.6369883518644828e+00  2.0729413614983855e-01  5.2124988933397443e-01  4.7129473735155930e-01  4.5624971176403611e-01  4.8256616057729246e-01  4.9157901386101677e-01  4.9726629661220345e-01  4.9896272140302095e-01  4.9972394206855797e-01  4.9988844143578187e-01  4.9995182998656384e-01  4.9995987747875270e-01  4.9995972558356844e-01  4.9995585830938505e-01  4.9995296381376275e-01  4.9995218239963174e-01  4.9995554027644368e-01  4.9996558805927777e-01  4.9998491889116226e-01  5.0001703513909290e-01  5.0006470684354720e-01  5.0012916188304002e-01  5.0020834242778267e-01  5.0029560674131679e-01  5.0037926615169437e-01  5.0044466211098870e-01  5.0047918749946652e-01  5.0047775937688022e-01  5.0044437512415552e-01  5.0038911571775102e-01  5.0032357938424321e-01  5.0025743941080325e-01  5.0019721566102526e-01  5.0014588372095836e-01  5.0010530592894265e-01  5.0007197033152639e-01  5.0005318601865056e-01  5.0001945277586335e-01  5.0004398092012392e-01  4.9987519044404632e-01  5.0014302182439230e-01  4.9867322781226470e-01  5.0063556726602365e-01  4.8828531845448725e-01  5.0645324687000459e-01  4.2046703160102966e-01  5.7999169197548783e-01  1.4089414699337413e-01  1.6379415541064373e+00  2.0749848388280842e-01  5.2153541987574870e-01  4.7141384634194128e-01  4.5623974338006684e-01  4.8252620010347613e-01  4.9153785748590378e-01  4.9723705498075776e-01  4.9894632731121402e-01  4.9971439185731181e-01  4.9987415965195769e-01  4.9993976635752124e-01  4.9994544846183836e-01  4.9994347971082564e-01  4.9993566098594550e-01  4.9992824402449443e-01  4.9992099836109805e-01  4.9991799114089081e-01  4.9992175090454738e-01  4.9993664664371223e-01  4.9997016057734639e-01  5.0002758566232597e-01  5.0011405537300235e-01  5.0022872931702411e-01  5.0036196941741684e-01  5.0049255682754823e-01  5.0059140818149772e-01  5.0063446060642647e-01  5.0061587320796785e-01  5.0054845698708272e-01  5.0045384067196752e-01  5.0035242268651170e-01  5.0025825698729642e-01  5.0017867938581673e-01  5.0011550212166100e-01  5.0006869640415030e-01  5.0003295054225927e-01  5.0001398372082062e-01  4.9998145239426994e-01  5.0000733540364461e-01  4.9984095247883198e-01  5.0010962556417748e-01  4.9864470884961953e-01  5.0060494825996105e-01  4.8826766093938639e-01  5.0642190735696690e-01  4.2050270876468215e-01  5.8001143613700445e-01  1.4137747659384425e-01  1.6386447272018800e+00  2.0764600244700557e-01  5.2174208549550927e-01  4.7150830165356555e-01  4.5623657910394466e-01  4.8249769257854236e-01  4.9151215351792604e-01  4.9722558378151199e-01  4.9893805835404975e-01  4.9970581326002633e-01  4.9986439954305140e-01  4.9993042679680239e-01  4.9993359166578105e-01  4.9992887101221051e-01  4.9991606428309771e-01  4.9990242513463257e-01  4.9988491630911713e-01  4.9987217485773694e-01  4.9986158935069924e-01  4.9986462584408320e-01  4.9989310612755350e-01  4.9995566209487202e-01  5.0007061481876736e-01  5.0024061748695803e-01  5.0045408277301184e-01  5.0066949037233277e-01  5.0082305755704148e-01  5.0086755526949778e-01  5.0080391005687575e-01  5.0066979378624343e-01  5.0051004049343895e-01  5.0035766007269156e-01  5.0022970745682949e-01  5.0013117041629007e-01  5.0005975540117209e-01  5.0001150645242909e-01  4.9997815791061506e-01  4.9996331685979783e-01  4.9993564492864889e-01  4.9996593625795638e-01  4.9980453032125155e-01  5.0007620247368623e-01  4.9861824003414451e-01  5.0057768891472787e-01  4.8825511864454840e-01  5.0639470039785461e-01  4.2053532658722137e-01  5.8001898937880969e-01  1.4178688352828075e-01  1.6392025811674691e+00  2.0775415490424926e-01  5.2189251540404535e-01  4.7158294671676293e-01  4.5623368099699951e-01  4.8247477170038849e-01  4.9149324166907254e-01  4.9721735859165905e-01  4.9893000883863320e-01  4.9969878700848147e-01  4.9985728112867306e-01  4.9992266678153752e-01  4.9992383833589310e-01  4.9991630253093811e-01  4.9989846907376134e-01  4.9987719038021361e-01  4.9984603875288636e-01  4.9982011896312617e-01  4.9978005698271472e-01  4.9976268742358276e-01  4.9976620634877045e-01  4.9981716781116681e-01  4.9996939613475833e-01  5.0022787726674223e-01  5.0059545235127034e-01  5.0097580684440868e-01  5.0121340802437764e-01  5.0122141803554421e-01  5.0104360315948315e-01  5.0078227089333049e-01  5.0052179226768378e-01  5.0030569099324385e-01  5.0014558613228899e-01  5.0003640324539589e-01  4.9996681189638797e-01  4.9992645424553134e-01  4.9990319875018974e-01  4.9989844546688811e-01  4.9988009271001149e-01  4.9991809441615348e-01  4.9976407751315788e-01  5.0004053067764576e-01  4.9859082991262710e-01  5.0055033816586392e-01  4.8824303488776744e-01  5.0636800586019781e-01  4.2056258704364319e-01  5.8001548148085935e-01  1.4213255354976165e-01  1.6396429655058509e+00  2.0783257378922962e-01  5.2200044750066132e-01  4.7164127796586497e-01  4.5622990053268631e-01  4.8245539302207346e-01  4.9147769407196668e-01  4.9721070039095072e-01  4.9892396244394760e-01  4.9969448070381933e-01  4.9985275857251349e-01  4.9991782861651068e-01  4.9991811744445747e-01  4.9990871039756507e-01  4.9988695439830722e-01  4.9985779350195075e-01  4.9981221643831325e-01  4.9976797443048554e-01  4.9967558280119834e-01  4.9963062944226377e-01  4.9954668006982944e-01  4.9956198286833930e-01  4.9976063894618644e-01  5.0016137147756834e-01  5.0086675275540049e-01  5.0157582056588790e-01  5.0189814400651767e-01  5.0172558283146207e-01  5.0127672218517294e-01  5.0079504731999269e-01  5.0040549965487313e-01  5.0013544710537383e-01  4.9996729056057820e-01  4.9987264785073043e-01  4.9982588318894117e-01  4.9980918827407006e-01  4.9980720673324730e-01  4.9982022403129250e-01  4.9981636459490436e-01  4.9986557865018688e-01  4.9972122533155749e-01  5.0000407617162035e-01  4.9856342634250794e-01  5.0052385282074485e-01  4.8823150770921164e-01  5.0634305144391079e-01  4.2058555518167434e-01  5.8000608170176571e-01  1.4242375770627597e-01  1.6399896363366895e+00  2.0788800845289218e-01  5.2207585411227775e-01  4.7168570275465233e-01  4.5622550037876097e-01  4.8243946501235840e-01  4.9146532994784886e-01  4.9720611013586008e-01  4.9892027085836976e-01  4.9969258279153766e-01  4.9985109895673024e-01  4.9991696914157635e-01  4.9991793421622549e-01  4.9990880838467155e-01  4.9988606080869291e-01  4.9985216177362402e-01  4.9979631742034109e-01  4.9972760148873829e-01  4.9956756103256594e-01  4.9949061756455815e-01  4.9918626411433453e-01  4.9919366035179275e-01  4.9936664450289731e-01  5.0002601622864484e-01  5.0156005885723876e-01  5.0283565665747709e-01  5.0303136978394847e-01  5.0224831522091407e-01  5.0124308001437023e-01  5.0046408599907710e-01  4.9998958674334387e-01  4.9974630052300678e-01  4.9964417839313657e-01  4.9961854121511334e-01  4.9963067261175176e-01  4.9966028545166080e-01  4.9969340494154435e-01  4.9973252913491523e-01  4.9974812664722484e-01  4.9981155473325856e-01  4.9967851977769184e-01  4.9996889819392321e-01  4.9853740234082244e-01  5.0049950673531440e-01  4.8822082889752483e-01  5.0632114296262554e-01  4.2060436094406356e-01  5.7999505448491184e-01  1.4266319907290764e-01  1.6402588928751085e+00  2.0792562810805257e-01  5.2212651041236402e-01  4.7171793756922348e-01  4.5622083051947371e-01  4.8242688668602363e-01  4.9145582850242420e-01  4.9720315617186372e-01  4.9891826487619639e-01  4.9969247853544885e-01  4.9985196323619263e-01  4.9991979942385162e-01  4.9992333822957691e-01  4.9991776208100364e-01  4.9989935545674669e-01  4.9986927956457750e-01  4.9981542082117331e-01  4.9972973784052377e-01  4.9952716884766485e-01  4.9939852769791770e-01  4.9869405061091004e-01  4.9883543440627726e-01  4.9852052277116943e-01  5.0001363278555877e-01  5.0347729215092263e-01  5.0523496319011363e-01  5.0443753707334482e-01  5.0207694119511914e-01  5.0022129532270276e-01  4.9929139055342359e-01  4.9899714231898279e-01  4.9901015866680526e-01  4.9912956931317776e-01  4.9926535835632102e-01  4.9938702739145957e-01  4.9948942539676949e-01  4.9957111357088640e-01  4.9964306603749248e-01  4.9968133970401146e-01  4.9976050102937941e-01  4.9963921287291907e-01  4.9993738996055559e-01  4.9851426408817195e-01  5.0047854768774636e-01  4.8821121554133201e-01  5.0630329513538330e-01  4.2061852860179871e-01  5.7998564196142310e-01  1.4285065739225780e-01  1.6404603424037834e+00  2.0794944727286999e-01  5.2215852811031827e-01  4.7173925614140477e-01  4.5621636114119324e-01  4.8241787339186187e-01  4.9144925728776057e-01  4.9720170215316467e-01  4.9891761629465814e-01  4.9969363427802876e-01  4.9985449008195348e-01  4.9992502106014913e-01  4.9993270068737922e-01  4.9993386685901914e-01  4.9992609215976197e-01  4.9991208114218311e-01  4.9988131851870204e-01  4.9981468777167948e-01  4.9964080829862878e-01  4.9943744313356520e-01  4.9840189007525637e-01  4.9899058401254864e-01  4.9701498533465321e-01  5.0140565234560786e-01  5.0779671598100073e-01  5.0832630896066611e-01  5.0458139902589993e-01  4.9928070388812684e-01  4.9699159102736740e-01  4.9663864587054246e-01  4.9717696415865253e-01  4.9786591492474780e-01  4.9843533612360147e-01  4.9884401457872551e-01  4.9912485285551167e-01  4.9932005360001686e-01  4.9945725769584925e-01  4.9956365226061089e-01  4.9962416372767338e-01  4.9971806858109213e-01  4.9960720298996575e-01  4.9991231245239431e-01  4.9849579831744167e-01  5.0046240470203984e-01  4.8820315681214826e-01  5.0629060113629476e-01  4.2062774322194130e-01  5.7998063289452617e-01  1.4298502835280130e-01  1.6406005222410240e+00  2.0796240877414102e-01  5.2217638643636355e-01  4.7175050111296080e-01  4.5621247106725071e-01  4.8241263791824307e-01  4.9144569018974771e-01  4.9720155961649781e-01  4.9891785757680190e-01  4.9969515586031066e-01  4.9985716509785905e-01  4.9993015176666772e-01  4.9994194892783067e-01  4.9995038160530142e-01  4.9995525036998306e-01  4.9996293006502363e-01  4.9996825019477376e-01  4.9995390929245415e-01  4.9986566890308021e-01  4.9964343650207982e-01  4.9875226224235386e-01  4.9933194061560882e-01  4.9357431981099592e-01  5.0413595959359936e-01  5.1097855615521171e-01  5.0720805919660450e-01  5.0015451725318671e-01  4.9028745116123323e-01  4.9020164746876682e-01  4.9249645969039135e-01  4.9478034378842323e-01  4.9655550969619583e-01  4.9773302171913203e-01  4.9846261489291810e-01  4.9890914119532798e-01  4.9919082932421649e-01  4.9937505591519354e-01  4.9950852006224089e-01  4.9958553695762142e-01  4.9969002004749491e-01  4.9958626828948416e-01  4.9989622190962335e-01  4.9848364338240903e-01  5.0045230825927189e-01  4.8819714392612101e-01  5.0628390145394853e-01  4.2063179328325095e-01  5.7998202365860196e-01  1.4306500343558184e-01  1.6406834828629726e+00  2.0796635053268467e-01  5.2218282161409502e-01  4.7175210838767795e-01  4.5620938514697307e-01  4.8241130177780228e-01  4.9144515811278294e-01  4.9720254338186565e-01  4.9891855804673441e-01  4.9969619903620804e-01  4.9985848217589984e-01  4.9993246788765944e-01  4.9994602534111565e-01  4.9995767386985163e-01  4.9996815374776915e-01  4.9998543851973076e-01  5.0000672797694112e-01  5.0001685531127893e-01  4.9996796177997999e-01  4.9974902751696970e-01  4.9912864131812412e-01  4.9841438096029606e-01  4.9110391262754355e-01  5.0441336806592196e-01  4.9825235440208865e-01  4.9907469421714956e-01  4.9173142074269738e-01  4.6526678714275022e-01  4.8044460518109727e-01  4.8878023956041150e-01  4.9320286412943432e-01  4.9584392199510580e-01  4.9740396956136151e-01  4.9830497461159234e-01  4.9882836595749563e-01  4.9914548911996787e-01  4.9934716036812887e-01  4.9949007901787323e-01  4.9957264579422217e-01  4.9968072545092695e-01  4.9957916719444578e-01  4.9989091610509140e-01  4.9847895495918931e-01  5.0044906083360863e-01  4.8819356507612555e-01  5.0628366470713360e-01  4.2063065484170314