<?xml version="1.0"?>
<VTKFile type="UnstructuredGrid"  version="0.1"  >
<UnstructuredGrid>
<Piece  NumberOfPoints="1617" NumberOfCells="3072">
<Points>
<DataArray  type="Float64"  NumberOfComponents="3"  format="ascii">0 0 0  0.03125 0 0  0.0625 0 0  0.09375 0 0  0.125 0 0  0.15625 0 0  0.1875 0 0  0.21875 0 0  0.25 0 0  0.28125 0 0  0.3125 0 0  0.34375 0 0  0.375 0 0  0.40625 0 0  0.4375 0 0  0.46875 0 0  0.5 0 0  0.53125 0 0  0.5625 0 0  0.59375 0 0  0.625 0 0  0.65625 0 0  0.6875 0 0  0.71875 0 0  0.75 0 0  0.78125 0 0  0.8125 0 0  0.84375 0 0  0.875 0 0  0.90625 0 0  0.9375 0 0  0.96875 0 0  1 0 0  1.03125 0 0  1.0625 0 0  1.09375 0 0  1.125 0 0  1.15625 0 0  1.1875 0 0  1.21875 0 0  1.25 0 0  1.28125 0 0  1.3125 0 0  1.34375 0 0  1.375 0 0  1.40625 0 0  1.4375 0 0  1.46875 0 0  1.5 0 0  0 0.03125 0  0.03125 0.03125 0  0.0625 0.03125 0  0.09375 0.03125 0  0.125 0.03125 0  0.15625 0.03125 0  0.1875 0.03125 0  0.21875 0.03125 0  0.25 0.03125 0  0.28125 0.03125 0  0.3125 0.03125 0  0.34375 0.03125 0  0.375 0.03125 0  0.40625 0.03125 0  0.4375 0.03125 0  0.46875 0.03125 0  0.5 0.03125 0  0.53125 0.03125 0  0.5625 0.03125 0  0.59375 0.03125 0  0.625 0.03125 0  0.65625 0.03125 0  0.6875 0.03125 0  0.71875 0.03125 0  0.75 0.03125 0  0.78125 0.03125 0  0.8125 0.03125 0  0.84375 0.03125 0  0.875 0.03125 0  0.90625 0.03125 0  0.9375 0.03125 0  0.96875 0.03125 0  1 0.03125 0  1.03125 0.03125 0  1.0625 0.03125 0  1.09375 0.03125 0  1.125 0.03125 0  1.15625 0.03125 0  1.1875 0.03125 0  1.21875 0.03125 0  1.25 0.03125 0  1.28125 0.03125 0  1.3125 0.03125 0  1.34375 0.03125 0  1.375 0.03125 0  1.40625 0.03125 0  1.4375 0.03125 0  1.46875 0.03125 0  1.5 0.03125 0  0 0.0625 0  0.03125 0.0625 0  0.0625 0.0625 0  0.09375 0.0625 0  0.125 0.0625 0  0.15625 0.0625 0  0.1875 0.0625 0  0.21875 0.0625 0  0.25 0.0625 0  0.28125 0.0625 0  0.3125 0.0625 0  0.34375 0.0625 0  0.375 0.0625 0  0.40625 0.0625 0  0.4375 0.0625 0  0.46875 0.0625 0  0.5 0.0625 0  0.53125 0.0625 0  0.5625 0.0625 0  0.59375 0.0625 0  0.625 0.0625 0  0.65625 0.0625 0  0.6875 0.0625 0  0.71875 0.0625 0  0.75 0.0625 0  0.78125 0.0625 0  0.8125 0.0625 0  0.84375 0.0625 0  0.875 0.0625 0  0.90625 0.0625 0  0.9375 0.0625 0  0.96875 0.0625 0  1 0.0625 0  1.03125 0.0625 0  1.0625 0.0625 0  1.09375 0.0625 0  1.125 0.0625 0  1.15625 0.0625 0  1.1875 0.0625 0  1.21875 0.0625 0  1.25 0.0625 0  1.28125 0.0625 0  1.3125 0.0625 0  1.34375 0.0625 0  1.375 0.0625 0  1.40625 0.0625 0  1.4375 0.0625 0  1.46875 0.0625 0  1.5 0.0625 0  0 0.09375 0  0.03125 0.09375 0  0.0625 0.09375 0  0.09375 0.09375 0  0.125 0.09375 0  0.15625 0.09375 0  0.1875 0.09375 0  0.21875 0.09375 0  0.25 0.09375 0  0.28125 0.09375 0  0.3125 0.09375 0  0.34375 0.09375 0  0.375 0.09375 0  0.40625 0.09375 0  0.4375 0.09375 0  0.46875 0.09375 0  0.5 0.09375 0  0.53125 0.09375 0  0.5625 0.09375 0  0.59375 0.09375 0  0.625 0.09375 0  0.65625 0.09375 0  0.6875 0.09375 0  0.71875 0.09375 0  0.75 0.09375 0  0.78125 0.09375 0  0.8125 0.09375 0  0.84375 0.09375 0  0.875 0.09375 0  0.90625 0.09375 0  0.9375 0.09375 0  0.96875 0.09375 0  1 0.09375 0  1.03125 0.09375 0  1.0625 0.09375 0  1.09375 0.09375 0  1.125 0.09375 0  1.15625 0.09375 0  1.1875 0.09375 0  1.21875 0.09375 0  1.25 0.09375 0  1.28125 0.09375 0  1.3125 0.09375 0  1.34375 0.09375 0  1.375 0.09375 0  1.40625 0.09375 0  1.4375 0.09375 0  1.46875 0.09375 0  1.5 0.09375 0  0 0.125 0  0.03125 0.125 0  0.0625 0.125 0  0.09375 0.125 0  0.125 0.125 0  0.15625 0.125 0  0.1875 0.125 0  0.21875 0.125 0  0.25 0.125 0  0.28125 0.125 0  0.3125 0.125 0  0.34375 0.125 0  0.375 0.125 0  0.40625 0.125 0  0.4375 0.125 0  0.46875 0.125 0  0.5 0.125 0  0.53125 0.125 0  0.5625 0.125 0  0.59375 0.125 0  0.625 0.125 0  0.65625 0.125 0  0.6875 0.125 0  0.71875 0.125 0  0.75 0.125 0  0.78125 0.125 0  0.8125 0.125 0  0.84375 0.125 0  0.875 0.125 0  0.90625 0.125 0  0.9375 0.125 0  0.96875 0.125 0  1 0.125 0  1.03125 0.125 0  1.0625 0.125 0  1.09375 0.125 0  1.125 0.125 0  1.15625 0.125 0  1.1875 0.125 0  1.21875 0.125 0  1.25 0.125 0  1.28125 0.125 0  1.3125 0.125 0  1.34375 0.125 0  1.375 0.125 0  1.40625 0.125 0  1.4375 0.125 0  1.46875 0.125 0  1.5 0.125 0  0 0.15625 0  0.03125 0.15625 0  0.0625 0.15625 0  0.09375 0.15625 0  0.125 0.15625 0  0.15625 0.15625 0  0.1875 0.15625 0  0.21875 0.15625 0  0.25 0.15625 0  0.28125 0.15625 0  0.3125 0.15625 0  0.34375 0.15625 0  0.375 0.15625 0  0.40625 0.15625 0  0.4375 0.15625 0  0.46875 0.15625 0  0.5 0.15625 0  0.53125 0.15625 0  0.5625 0.15625 0  0.59375 0.15625 0  0.625 0.15625 0  0.65625 0.15625 0  0.6875 0.15625 0  0.71875 0.15625 0  0.75 0.15625 0  0.78125 0.15625 0  0.8125 0.15625 0  0.84375 0.15625 0  0.875 0.15625 0  0.90625 0.15625 0  0.9375 0.15625 0  0.96875 0.15625 0  1 0.15625 0  1.03125 0.15625 0  1.0625 0.15625 0  1.09375 0.15625 0  1.125 0.15625 0  1.15625 0.15625 0  1.1875 0.15625 0  1.21875 0.15625 0  1.25 0.15625 0  1.28125 0.15625 0  1.3125 0.15625 0  1.34375 0.15625 0  1.375 0.15625 0  1.40625 0.15625 0  1.4375 0.15625 0  1.46875 0.15625 0  1.5 0.15625 0  0 0.1875 0  0.03125 0.1875 0  0.0625 0.1875 0  0.09375 0.1875 0  0.125 0.1875 0  0.15625 0.1875 0  0.1875 0.1875 0  0.21875 0.1875 0  0.25 0.1875 0  0.28125 0.1875 0  0.3125 0.1875 0  0.34375 0.1875 0  0.375 0.1875 0  0.40625 0.1875 0  0.4375 0.1875 0  0.46875 0.1875 0  0.5 0.1875 0  0.53125 0.1875 0  0.5625 0.1875 0  0.59375 0.1875 0  0.625 0.1875 0  0.65625 0.1875 0  0.6875 0.1875 0  0.71875 0.1875 0  0.75 0.1875 0  0.78125 0.1875 0  0.8125 0.1875 0  0.84375 0.1875 0  0.875 0.1875 0  0.90625 0.1875 0  0.9375 0.1875 0  0.96875 0.1875 0  1 0.1875 0  1.03125 0.1875 0  1.0625 0.1875 0  1.09375 0.1875 0  1.125 0.1875 0  1.15625 0.1875 0  1.1875 0.1875 0  1.21875 0.1875 0  1.25 0.1875 0  1.28125 0.1875 0  1.3125 0.1875 0  1.34375 0.1875 0  1.375 0.1875 0  1.40625 0.1875 0  1.4375 0.1875 0  1.46875 0.1875 0  1.5 0.1875 0  0 0.21875 0  0.03125 0.21875 0  0.0625 0.21875 0  0.09375 0.21875 0  0.125 0.21875 0  0.15625 0.21875 0  0.1875 0.21875 0  0.21875 0.21875 0  0.25 0.21875 0  0.28125 0.21875 0  0.3125 0.21875 0  0.34375 0.21875 0  0.375 0.21875 0  0.40625 0.21875 0  0.4375 0.21875 0  0.46875 0.21875 0  0.5 0.21875 0  0.53125 0.21875 0  0.5625 0.21875 0  0.59375 0.21875 0  0.625 0.21875 0  0.65625 0.21875 0  0.6875 0.21875 0  0.71875 0.21875 0  0.75 0.21875 0  0.78125 0.21875 0  0.8125 0.21875 0  0.84375 0.21875 0  0.875 0.21875 0  0.90625 0.21875 0  0.9375 0.21875 0  0.96875 0.21875 0  1 0.21875 0  1.03125 0.21875 0  1.0625 0.21875 0  1.09375 0.21875 0  1.125 0.21875 0  1.15625 0.21875 0  1.1875 0.21875 0  1.21875 0.21875 0  1.25 0.21875 0  1.28125 0.21875 0  1.3125 0.21875 0  1.34375 0.21875 0  1.375 0.21875 0  1.40625 0.21875 0  1.4375 0.21875 0  1.46875 0.21875 0  1.5 0.21875 0  0 0.25 0  0.03125 0.25 0  0.0625 0.25 0  0.09375 0.25 0  0.125 0.25 0  0.15625 0.25 0  0.1875 0.25 0  0.21875 0.25 0  0.25 0.25 0  0.28125 0.25 0  0.3125 0.25 0  0.34375 0.25 0  0.375 0.25 0  0.40625 0.25 0  0.4375 0.25 0  0.46875 0.25 0  0.5 0.25 0  0.53125 0.25 0  0.5625 0.25 0  0.59375 0.25 0  0.625 0.25 0  0.65625 0.25 0  0.6875 0.25 0  0.71875 0.25 0  0.75 0.25 0  0.78125 0.25 0  0.8125 0.25 0  0.84375 0.25 0  0.875 0.25 0  0.90625 0.25 0  0.9375 0.25 0  0.96875 0.25 0  1 0.25 0  1.03125 0.25 0  1.0625 0.25 0  1.09375 0.25 0  1.125 0.25 0  1.15625 0.25 0  1.1875 0.25 0  1.21875 0.25 0  1.25 0.25 0  1.28125 0.25 0  1.3125 0.25 0  1.34375 0.25 0  1.375 0.25 0  1.40625 0.25 0  1.4375 0.25 0  1.46875 0.25 0  1.5 0.25 0  0 0.28125 0  0.03125 0.28125 0  0.0625 0.28125 0  0.09375 0.28125 0  0.125 0.28125 0  0.15625 0.28125 0  0.1875 0.28125 0  0.21875 0.28125 0  0.25 0.28125 0  0.28125 0.28125 0  0.3125 0.28125 0  0.34375 0.28125 0  0.375 0.28125 0  0.40625 0.28125 0  0.4375 0.28125 0  0.46875 0.28125 0  0.5 0.28125 0  0.53125 0.28125 0  0.5625 0.28125 0  0.59375 0.28125 0  0.625 0.28125 0  0.65625 0.28125 0  0.6875 0.28125 0  0.71875 0.28125 0  0.75 0.28125 0  0.78125 0.28125 0  0.8125 0.28125 0  0.84375 0.28125 0  0.875 0.28125 0  0.90625 0.28125 0  0.9375 0.28125 0  0.96875 0.28125 0  1 0.28125 0  1.03125 0.28125 0  1.0625 0.28125 0  1.09375 0.28125 0  1.125 0.28125 0  1.15625 0.28125 0  1.1875 0.28125 0  1.21875 0.28125 0  1.25 0.28125 0  1.28125 0.28125 0  1.3125 0.28125 0  1.34375 0.28125 0  1.375 0.28125 0  1.40625 0.28125 0  1.4375 0.28125 0  1.46875 0.28125 0  1.5 0.28125 0  0 0.3125 0  0.03125 0.3125 0  0.0625 0.3125 0  0.09375 0.3125 0  0.125 0.3125 0  0.15625 0.3125 0  0.1875 0.3125 0  0.21875 0.3125 0  0.25 0.3125 0  0.28125 0.3125 0  0.3125 0.3125 0  0.34375 0.3125 0  0.375 0.3125 0  0.40625 0.3125 0  0.4375 0.3125 0  0.46875 0.3125 0  0.5 0.3125 0  0.53125 0.3125 0  0.5625 0.3125 0  0.59375 0.3125 0  0.625 0.3125 0  0.65625 0.3125 0  0.6875 0.3125 0  0.71875 0.3125 0  0.75 0.3125 0  0.78125 0.3125 0  0.8125 0.3125 0  0.84375 0.3125 0  0.875 0.3125 0  0.90625 0.3125 0  0.9375 0.3125 0  0.96875 0.3125 0  1 0.3125 0  1.03125 0.3125 0  1.0625 0.3125 0  1.09375 0.3125 0  1.125 0.3125 0  1.15625 0.3125 0  1.1875 0.3125 0  1.21875 0.3125 0  1.25 0.3125 0  1.28125 0.3125 0  1.3125 0.3125 0  1.34375 0.3125 0  1.375 0.3125 0  1.40625 0.3125 0  1.4375 0.3125 0  1.46875 0.3125 0  1.5 0.3125 0  0 0.34375 0  0.03125 0.34375 0  0.0625 0.34375 0  0.09375 0.34375 0  0.125 0.34375 0  0.15625 0.34375 0  0.1875 0.34375 0  0.21875 0.34375 0  0.25 0.34375 0  0.28125 0.34375 0  0.3125 0.34375 0  0.34375 0.34375 0  0.375 0.34375 0  0.40625 0.34375 0  0.4375 0.34375 0  0.46875 0.34375 0  0.5 0.34375 0  0.53125 0.34375 0  0.5625 0.34375 0  0.59375 0.34375 0  0.625 0.34375 0  0.65625 0.34375 0  0.6875 0.34375 0  0.71875 0.34375 0  0.75 0.34375 0  0.78125 0.34375 0  0.8125 0.34375 0  0.84375 0.34375 0  0.875 0.34375 0  0.90625 0.34375 0  0.9375 0.34375 0  0.96875 0.34375 0  1 0.34375 0  1.03125 0.34375 0  1.0625 0.34375 0  1.09375 0.34375 0  1.125 0.34375 0  1.15625 0.34375 0  1.1875 0.34375 0  1.21875 0.34375 0  1.25 0.34375 0  1.28125 0.34375 0  1.3125 0.34375 0  1.34375 0.34375 0  1.375 0.34375 0  1
[...]
<PointData  Scalars="f_81"> 
<DataArray  type="Float64"  Name="f_81"  format="ascii">1.2630102297338526e+00  2.6227169594246214e-01  3.6619725180780044e-01  3.7697248026826802e-01  3.9418110536895218e-01  4.0717567591026893e-01  4.1745070640247989e-01  4.2545611245093296e-01  4.3179407637067763e-01  4.3710405931604168e-01  4.4186270919031045e-01  4.4638322352492016e-01  4.5084347441032346e-01  4.5533562353878709e-01  4.5990487687040305e-01  4.6457417155828296e-01  4.6935699683645948e-01  4.7426302252770602e-01  4.7929998333406204e-01  4.8447384481085998e-01  4.8978828830371185e-01  4.9524404239267739e-01  5.0083836355590905e-01  5.0656485675215590e-01  5.1241373421397041e-01  5.1837250714624827e-01  5.2442699956611427e-01  5.3056249572382363e-01  5.3676480309700281e-01  5.4302105347145113e-01  5.4932011414705828e-01  5.5565263370761975e-01  5.6201059390497354e-01  5.6838673465524003e-01  5.7477248448422835e-01  5.8115620422615055e-01  5.8751203669691954e-01  5.9379235912583372e-01  5.9987400592285911e-01  6.0554997910279773e-01  6.1037422943263131e-01  6.1371194541434249e-01  6.1490282410365238e-01  6.1180106876188656e-01  6.0819288880581601e-01  5.7964592514787128e-01  6.4235932181251265e-01  5.1644229402887476e-01  1.3978175974669876e-01  2.5015496606729934e+00  2.4413388084016888e-02  5.5187302930366811e-01  4.8282178856770036e-01  5.0175532613511120e-01  5.1036991509575691e-01  5.1688761020050034e-01  5.2054573215406197e-01  5.2230891767432341e-01  5.2279987088970070e-01  5.2256168553298277e-01  5.2194790805279534e-01  5.2116091536981235e-01  5.2030373845693989e-01  5.1942457171421041e-01  5.1854524183857065e-01  5.1767608808523213e-01  5.1682258862581121e-01  5.1598776495968579e-01  5.1517276559116898e-01  5.1437680498686500e-01  5.1359700952654819e-01  5.1282843692340341e-01  5.1206439578256502e-01  5.1129708976399657e-01  5.1051851402330384e-01  5.0972144980682876e-01  5.0890036203116651e-01  5.0805201897937691e-01  5.0717572540302869e-01  5.0627314114586042e-01  5.0534775961339828e-01  5.0440405223997598e-01  5.0344635458846920e-01  5.0247672712360913e-01  5.0149123447092614e-01  5.0047005783016851e-01  4.9935896541933233e-01  4.9803194124196026e-01  4.9622692032294347e-01  4.9352160108051646e-01  4.8910590663426823e-01  4.8263250903301808e-01  4.7152876587797971e-01  4.6051463345252169e-01  4.3217221849694398e-01  4.7024339035454737e-01  3.6655802225628148e-01  3.2962169009825626e-02  2.5090541170912273e+00  -1.6977989379058156e-01  6.1174262286489511e-01  4.3349739259395997e-01  4.7385691468453162e-01  4.8176083425019933e-01  4.8946925182839313e-01  4.9430655211291097e-01  4.9734309811175287e-01  4.9906668092749529e-01  5.0003684603396126e-01  5.0060875762612556e-01  5.0099267401638525e-01  5.0129455606708551e-01  5.0156272987344996e-01  5.0181740353552196e-01  5.0206678218958212e-01  5.0231435800939706e-01  5.0256173986132091e-01  5.0280954474480188e-01  5.0305756718567995e-01  5.0330474493676103e-01  5.0354912706968125e-01  5.0378793011499190e-01  5.0401771595348033e-01  5.0423469067784976e-01  5.0443508825784267e-01  5.0461556994851797e-01  5.0477355231013776e-01  5.0490739342405599e-01  5.0501639122869124e-01  5.0510061220177971e-01  5.0516045341988669e-01  5.0519595114404059e-01  5.0520475672222176e-01  5.0517854976195464e-01  5.0509152698041426e-01  5.0488336273219858e-01  5.0441329035209237e-01  5.0342142190530381e-01  5.0145082668847119e-01  4.9783494328584527e-01  4.9207132790334535e-01  4.8267100249022693e-01  4.7278064977928613e-01  4.5208869750450659e-01  4.9175792545708807e-01  3.9134678827340941e-01  5.9801533995131370e-02  2.5208190719534884e+00  -1.6334237475849114e-01  6.4825552567884748e-01  4.1865858171024811e-01  4.8263109112582425e-01  4.8468320161465078e-01  4.9214115673329900e-01  4.9671325443256287e-01  4.9942765595406513e-01  5.0084886487455749e-01  5.0151453188863893e-01  5.0178356554498060e-01  5.0187011559903438e-01  5.0188122498970023e-01  5.0186533492563989e-01  5.0184227965295991e-01  5.0181999564113045e-01  5.0180196987666803e-01  5.0179013497817104e-01  5.0178573428642359e-01  5.0178941731446614e-01  5.0180108493309539e-01  5.0181970611387838e-01  5.0184323157700095e-01  5.0186868978787613e-01  5.0189250634297278e-01  5.0191101216665335e-01  5.0192101912919207e-01  5.0192029162704310e-01  5.0190777842852308e-01  5.0188355034180665e-01  5.0184850667010883e-01  5.0180381590882095e-01  5.0175014314355393e-01  5.0168561361284836e-01  5.0160222888989325e-01  5.0147463246048762e-01  5.0124336507985834e-01  5.0077183444841245e-01  4.9980949031484773e-01  4.9793144694606256e-01  4.9451518422935681e-01  4.8919843431578641e-01  4.8050958130504512e-01  4.7191807584197465e-01  4.5236935765293029e-01  4.9380475425268894e-01  3.9650997039337116e-01  6.0538375421430632e-02  2.5253807106312989e+00  -1.6290899457596322e-01  6.4919379352667628e-01  4.1223891054538603e-01  4.8568514935352908e-01  4.8185274090157543e-01  4.9028250426982900e-01  4.9485111383189395e-01  4.9750891945072462e-01  4.9898313028913488e-01  4.9968779029788069e-01  5.0000371083592365e-01  5.0013677215193220e-01  5.0019263898700217e-01  5.0021851820416174e-01  5.0023371985937548e-01  5.0024608572698614e-01  5.0025940061786578e-01  5.0027622611009837e-01  5.0029869081473233e-01  5.0032846849572488e-01  5.0036643584582330e-01  5.0041225189112182e-01  5.0046405460496102e-01  5.0051845384943983e-01  5.0057094700193816e-01  5.0061672692406145e-01  5.0065164646698301e-01  5.0067298554241046e-01  5.0067975960581079e-01  5.0067252558763431e-01  5.0065285777988544e-01  5.0062258221962219e-01  5.0058288932526229e-01  5.0053229333819393e-01  5.0046314436397932e-01  5.0035059667296777e-01  5.0013646628644426e-01  4.9968705748201564e-01  4.9875992438182282e-01  4.9694437225746146e-01  4.9365265731803853e-01  4.8855088701387206e-01  4.8025237282320798e-01  4.7215173103320113e-01  4.5326629513243044e-01  4.9516771194698278e-01  3.9832787500610606e-01  5.8981178329169867e-02  2.5290968570626688e+00  -1.6087983054138000e-01  6.5084951424672188e-01  4.1315218326028647e-01  4.8755681075213619e-01  4.8125043962499059e-01  4.9075925871214193e-01  4.9497525356651423e-01  4.9751880086042261e-01  4.9897052860317764e-01  4.9961964593550767e-01  4.9989878760553397e-01  4.9999400730303167e-01  5.0001299227467866e-01  5.0000193513577773e-01  4.9998032779926121e-01  4.9995649335777120e-01  4.9993513729477795e-01  4.9992008560120266e-01  4.9991502631870005e-01  4.9992327927864882e-01  4.9994709370585855e-01  4.9998676644081752e-01  5.0003993302732086e-01  5.0010141819025755e-01  5.0016397448128158e-01  5.0021986645731265e-01  5.0026274565651707e-01  5.0028899766951274e-01  5.0029805819291961e-01  5.0029177988404494e-01  5.0027333548154829e-01  5.0024600376435568e-01  5.0021205858963491e-01  5.0017070772869354e-01  5.0011473222092362e-01  5.0001968543972897e-01  4.9982823400601722e-01  4.9940867496073038e-01  4.9852365654556219e-01  4.9677191495745399e-01  4.9358413034648113e-01  4.8864832783315049e-01  4.8060402775445510e-01  4.7283837399831569e-01  4.5436887901329026e-01  4.9672554156034138e-01  4.0130601007634831e-01  6.0018259465012408e-02  2.5320874034026604e+00  -1.5967416843329177e-01  6.5157764892052494e-01  4.1370256096569524e-01  4.8787932978120563e-01  4.8113244230042190e-01  4.9105207305725151e-01  4.9491724896348444e-01  4.9748350423454613e-01  4.9893510304895122e-01  4.9956064670603573e-01  4.9983450580436267e-01  4.9991701330225891e-01  4.9992255046939899e-01  4.9989556850119221e-01  4.9985609372094814e-01  4.9981313788466886e-01  4.9977265498517537e-01  4.9974028361203521e-01  4.9972219398261375e-01  4.9972446397335274e-01  4.9975175972593766e-01  4.9980552730217626e-01  4.9988239914300092e-01  4.9997368022503930e-01  5.0006678119818360e-01  5.0014853784797786e-01  5.0020900867304441e-01  5.0024376973090290e-01  5.0025384126404371e-01  5.0024389127246383e-01  5.0021998505508547e-01  5.0018766967090411e-01  5.0015064684486832e-01  5.0010881651725814e-01  5.0005515807211987e-01  4.9996520731808997e-01  4.9978176695717258e-01  4.9937380542123455e-01  4.9850648390297458e-01  4.9678303070222540e-01  4.9364545155623990e-01  4.8879152665478953e-01  4.8088800891670208e-01  4.7330300722865387e-01  4.5510113930589208e-01  4.9776052802397031e-01  4.0334952472429153e-01  6.0229721382020367e-02  2.5345628393450594e+00  -1.5899312801318907e-01  6.5206431961827005e-01  4.1408795078475114e-01  4.8806447184165785e-01  4.8124637731490477e-01  4.9117644923781828e-01  4.9489453161803293e-01  4.9752284014984161e-01  4.9895812536392542e-01  4.9957567495884098e-01  4.9984905867298102e-01  4.9992176932078597e-01  4.9991619401868670e-01  4.9987379843125468e-01  4.9981527641463958e-01  4.9975027856529280e-01  4.9968605950343220e-01  4.9963087443030441e-01  4.9959500852391447e-01  4.9958937475408982e-01  4.9962338843912835e-01  4.9970105403207771e-01  4.9981738816352966e-01  4.9995692227275673e-01  5.0009668585990352e-01  5.0021362682539605e-01  5.0029254798250855e-01  5.0032959278113087e-01  5.0033033878664401e-01  5.0030517348931158e-01  5.0026497073254972e-01  5.0021835756632893e-01  5.0017048174379342e-01  5.0012154017979271e-01  5.0006417749450827e-01  4.9997336127070330e-01  4.9979144292129341e-01  4.9938724480882013e-01  4.9852705607752795e-01  4.9681613626171833e-01  4.9370397561775436e-01  4.8889369092441293e-01  4.8107577151832304e-01  4.7360324846036383e-01  4.5560155361813665e-01  4.9850329728272447e-01  4.0498808114969703e-01  6.0457530942085967e-02  2.5366118399261093e+00  -1.5867966018382629e-01  6.5242049795414558e-01  4.1431421478071218e-01  4.8816194407957836e-01  4.8130382573140729e-01  4.9119755469241400e-01  4.9489273837937681e-01  4.9755074969801805e-01  4.9897083497314315e-01  4.9959386125655070e-01  4.9986772803014851e-01  4.9993413653006746e-01  4.9991952261370048e-01  4.9986178357706867e-01  4.9978186287532039e-01  4.9968949922818123e-01  4.9959265417055332e-01  4.9950377223706632e-01  4.9943963987073536e-01  4.9941978479043270e-01  4.9946352744898059e-01  4.9958049850339264e-01  4.9976322843338405e-01  4.9998260165512864e-01  5.0019456521714190e-01  5.0035800971532296e-01  5.0045158587679439e-01  5.0047708389136514e-01  5.0045128681389195e-01  5.0039518667403016e-01  5.0032667775560891e-01  5.0025765234623942e-01  5.0019387550353900e-01  5.0013476231086551e-01  5.0007168376515232e-01  4.9997835618870179e-01  4.9979619537428016e-01  4.9939345169902927e-01  4.9853688027717896e-01  4.9683262527603317e-01  4.9373563438324813e-01  4.8895163210808906e-01  4.8119273380077265e-01  4.7379609300577241e-01  4.5595018146544891e-01  4.9904160108580581e-01  4.0627270779639368e-01  6.0638522682417637e-02  2.5383198028782581e+00  -1.5858273700386730e-01  6.5271352475352695e-01  4.1444051529147863e-01  4.8821630996446269e-01  4.8132665364001676e-01  4.9120314014743616e-01  4.9489978328794976e-01  4.9756512035037520e-01  4.9898419045239684e-01  4.9961677804785626e-01  4.9989143932509578e-01  4.9995506886647711e-01  4.9993278479248754e-01  4.9985911574332414e-01  4.9975388873195786e-01  4.9962532914913194e-01  4.9948062382520969e-01  4.9933930339986565e-01  4.9922622883036344e-01  4.9917771045605863e-01  4.9923357903015259e-01  4.9941490210402462e-01  4.9971147773233626e-01  5.0006479897518274e-01  5.0038590588981424e-01  5.0060176424650427e-01  5.0068974355733398e-01  5.0067215143552790e-01  5.0059010782972635e-01  5.0048164272168416e-01  5.0037242302125839e-01  5.0027552963468369e-01  5.0019469684818940e-01  5.0012640490338811e-01  5.0005935071351837e-01  4.9996523455242364e-01  4.9978418436570138e-01  4.9938371397822706e-01  4.9853082119075787e-01  4.9683202791075259e-01  4.9374660893410888e-01  4.8898124700712875e-01  4.8126744143882039e-01  4.7392573017389655e-01  4.5620538789796855e-01  4.9944743037927319e-01  4.0730278226830297e-01  6.0782254243222290e-02  2.5397412004352176e+00  -1.5860584418552498e-01  6.5297425953335608e-01  4.1451623997392339e-01  4.8826382237471894e-01  4.8134644316529401e-01  4.9121653254598563e-01  4.9491522700749946e-01  4.9758608624542572e-01  4.9901280979750806e-01  4.9965441118883785e-01  4.9993283185180737e-01  4.9999800406568617e-01  4.9997096249437417e-01  4.9988273144774575e-01  4.9974959383129675e-01  4.9957475694205894e-01  4.9936258742008466e-01  4.9914206639759501e-01  4.9894342090226285e-01  4.9884067518899405e-01  4.9890903678786813e-01  4.9919518936465018e-01  4.9969300594288413e-01  5.0027301369919475e-01  5.0074722051774323e-01  5.0099307403943105e-01  5.0101449777360585e-01  5.0089092365275822e-01  5.0070850891709273e-01  5.0052566341695748e-01  5.0037014615974507e-01  5.0024900851713971e-01  5.0015843808181593e-01  5.0008878231855203e-01  5.0002461943470800e-01  4.9993522135379892e-01  4.9975950079327691e-01  4.9936445863197954e-01  4.9851746216897103e-01  4.9682533063095358e-01  4.9375099912776022e-01  4.8900119172514761e-01  4.8132464309762518e-01  4.7402505234021763e-01  4.5640777503357821e-01  4.9977028629953302e-01  4.0814970978069937e-01  6.0906210785331191e-02  2.5409098499712597e+00  -1.5869230581770791e-01  6.5320792718987786e-01  4.1456188856745163e-01  4.8831002544062013e-01  4.8136590674262492e-01  4.9123593732839632e-01  4.9493779308961655e-01  4.9761718906455110e-01  4.9905495961958429e-01  4.9970770831397443e-01  4.9999625715069884e-01  5.0007018617243615e-01  5.0004646460848312e-01  4.9995172993993936e-01  4.9979542097919644e-01  4.9957037341759031e-01  4.9927550833874135e-01  4.9894334404982449e-01  4.9860194442959815e-01  4.9840700571350921e-01  4.9847028342727129e-01  4.9892624230764199e-01  4.9979512798495546e-01  5.0075265708422545e-01  5.0140014458933913e-01  5.0156452581099342e-01  5.0137383370312605e-01  5.0103931990929085e-01  5.0070973622014847e-01  5.0044846763455986e-01  5.0026439410521051e-01  5.0014304196314530e-01  5.0006502912849271e-01  5.0001166455846124e-01  4.9996323459776543e-01  4.9988746401678869e-01  4.9972311292233035e-01  4.9933755848060990e-01  4.9849909850812735e-01  4.9681512338041534e-01  4.9375185819591333e-01  4.8901570126382976e-01  4.8137044611154234e-01  4.7410376985739378e-01  4.5657088349370833e-01  5.0002927784354811e-01  4.0884506088032208e-01  6.1008151479802833e-02  2.5418468383103963e+00  -1.5880742695368597e-01  6.5341181145606786e-01  4.1458752033355839e-01  4.8835389838301463e-01  4.8138466959059523e-01  4.9125936728412578e-01  4.9496585241678226e-01  4.9765612290090244e-01  4.9910759271451438e-01  4.9977628403973456e-01  5.0008314531487263e-01  5.0017686181397147e-01  5.0017177649421174e-01  5.0008980168666894e-01  4.9993098441813444e-01  4.9967340076135841e-01  4.9930434254783512e-01  4.9883532005291364e-01  4.9828728362838709e-01  4.9794315273597878e-01  4.9790604228178226e-01  4.9865223432460321e-01  5.0022113738400631e-01  5.0177139527235415e-01  5.0249006196528745e-01  5.0223915360222882e-01  5.0155827862482960e-01  5.0088865732861521e-01  5.0040900673038213e-01  5.0012447701968632e-01  4.9997941623103098e-01  4.9991659411754269e-01  4.9989471374261546e-01  4.9988715389251270e-01  4.9987331379046551e-01  4.9982278680935133e-01  4.9967680909955980e-01  4.9930491124957760e-01  4.9847735551295458e-01  4.9680268583365711e-01  4.9375021991373486e-01  4.8902607102997780e-01  4.8140674621208468e-01  4.7416577474948690e-01  4.5670067247373902e-01  5.0023429781083462e-01  4.0940532296761251e-01  6.1088660404678696e-02  2.5425661694885360e+00  -1.5892765388457417e-01  6.5358155529107631e-01  4.1459897746048463e-01  4.8839286288093881e-01  4.8140129667029768e-01  4.9128353981694550e-01  4.9499551722747454e-01  4.9769801976872752e-01  4.9916543900085858e-01  4.9985472190127006e-01  5.0018797209927512e-01  5.0031474264559650e-01  5.0034954788414909e-01  5.0031222417324539e-01  5.0019576292103107e-01  4.9996496657462408e-01  4.9958443347929976e-01  4.9901046333831317e-01  4.9825548127994962e-01  4.9766435790866725e-01  4.9724793669180306e-01  4.9851757091412491e-01  5.0132722660953921e-01  5.0375144470610134e-01  5.0414044641472155e-01  5.0268062408130099e-01  5.0107456280152163e-01  5.0004475148095051e-01  4.9955881778963007e-01  4.9942071979929620e-01  4.9945410580824423e-01  4.9954727501086799e-01  4.9964360674270780e-01  4.9971885172629343e-01  4.9976059241343285e-01  4.9974675497041904e-01  4.9962516620941738e-01  4.9926994234637018e-01  4.9845459083619037e-01  4.9678951686610773e-01  4.9374694791886731e-01  4.8903301016638101e-01  4.8143427974709768e-01  4.7421297861147088e-01  4.5680000956164474e-01  5.0039087939581650e-01  4.0983794811037394e-01  6.1147580237366106e-02  2.5430775378318078e+00  -1.5903592867669308e-01  6.5371302120088437e-01  4.1460032766751720e-01  4.8842438390643977e-01  4.8141422029614628e-01  4.9130489091403740e-01  4.9502218999358721e-01  4.9773651691857751e-01  4.9921985960208237e-01  4.9993111730660472e-01  5.0029477625301633e-01  5.0046361748533763e-01  5.0055623870425681e-01  5.0059668419668790e-01  5.0058077985228300e-01  5.0047274117144147e-01  5.0021858006990594e-01  4.9972395302393918e-01  4.9895737465069234e-01  4.9797817691794743e-01  4.9655419837256859e-01  4.9834289867844767e-01  5.0354896536106075e-01  5.0762749479427327e-01  5.0648673127821386e-01  5.0201647199453159e-01  4.9925202811792424e-01  4.9810759669518556e-01  4.9801495684502944e-01  4.9832061459582311e-01  4.9871947990512289e-01  4.9907504554824939e-01  4.9934625265272392e-01  4.9953270125445870e-01  4.9964330140548452e-01  4.9967174785591317e-01  4.9957642818633108e-01  4.9923805472778093e-01  4.9843425817981057e-01  4.9677775910237393e-01  4.9374330238570274e-01  4.8903740815830427e-01  4.8145370677027949e-01  4.7424674436524183e-01  4.5687060992818657e-01  5.0050254929769822e-01  4.1014597270483205e-01  6.1184849312509365e-02  2.5433875404383537e+00  -1.5912023659132260e-01  6.5380267728710895e-01  4.1459442554111092e-01  4.8844619629468677e-01  4.8142189893964771e-01  4.9131993152226461e-01  4.9504099460955581e-01  4.9776417614623669e-01  4.9925958900664841e-01  4.9998822797972031e-01  5.0037717984489205e-01  5.0058324012017208e-01  5.0073115706232252e-01  5.0085412999165357e-01  5.0096184838287339e-01  5.0103997564795411e-01  5.0106294298221510e-01  5.0099260572346238e-01  5.0083299940041370e-01  5.0033525806380830e-01  4.9885092645621970e-01  5.0022995565780048e-01  5.0780637480733004e-01  5.1530457119282436e-01  5.1229474133441733e-01  4.9878673863048251e-01  4.9525559367558253e-01  4.9530617182378101e-01  4.9609608503451308e-01  4.9711781977970004e-01  4.9798894489215101e-01  4.9863965372230645e-01  4.9908888815685004e-01  4.9938030536221484e-01  4.9955190065646049e-01  4.9961573978960289e-01  4.9954128307813794e-01  4.9921566419330826e-01  4.9842021495499139e-01  4.9676972107735240e-01  4.9374062780805389e-01  4.8904015195554551e-01  4.8146559957361651e-01  4.7426802934523288e-01  4.5691349633488637e-01  5.0057146483868564e-01  4.1033016594599958e-01  6.1200425218310012e-02  2.5435001826274748e+00  -1.5917333745937068e-01  6.5384789394118559e-01  4.1458309176010810e-01  4.8845654667357336e-01  4.8142314281217130e-01  4.9132593208653369e-01  4.9504797843659615e-01  4.9777467552423027e-01  4.9927456289175765e-01  5.0000972750200301e-01  5.0040832584461126e-01  5.0062884717252254e-01  5.0079889075414397e-01  5.0095638170930001e-01  5.0111950899116986e-01  5.0129024724550009e-01  5.0147635702070603e-01  5.0171576866556578e-01  5.0210268636509969e-01  5.0260425861611335e-01  5.0272688781383390e-01  5.0290984144942974e-01  5.2189136123070656e-01  5.2014822450892895e-01  5.1904602981274262e-01  5.1034803358836511e-01  4.9003782800306683e-01  4.9296180646854226e-01  4.9491906871304853e-01  4.9649171901908795e-01  4.9764477896427139e-01  4.9844985925086177e-01  4.9898370299208678e-01  4.9932151634034388e-01  4.9951837363145923e-01  4.9959600881239108e-01  4.9952923790790021e-01  4.9920811695387707e-01  4.9841551570838316e-01  4.9676716338042676e-01  4.9373992647520881e-01  4.8904186936777644e-01  4.8147034114907350e-01  4.7427738639663525e-01  4.56