<?xml version="1.0"?>
<VTKFile type="UnstructuredGrid"  version="0.1"  >
<UnstructuredGrid>
<Piece  NumberOfPoints="1617" NumberOfCells="3072">
<Points>
<DataArray  type="Float64"  NumberOfComponents="3"  format="ascii">0 0 0  0.03125 0 0  0.0625 0 0  0.09375 0 0  0.125 0 0  0.15625 0 0  0.1875 0 0  0.21875 0 0  0.25 0 0  0.28125 0 0  0.3125 0 0  0.34375 0 0  0.375 0 0  0.40625 0 0  0.4375 0 0  0.46875 0 0  0.5 0 0  0.53125 0 0  0.5625 0 0  0.59375 0 0  0.625 0 0  0.65625 0 0  0.6875 0 0  0.71875 0 0  0.75 0 0  0.78125 0 0  0.8125 0 0  0.84375 0 0  0.875 0 0  0.90625 0 0  0.9375 0 0  0.96875 0 0  1 0 0  1.03125 0 0  1.0625 0 0  1.09375 0 0  1.125 0 0  1.15625 0 0  1.1875 0 0  1.21875 0 0  1.25 0 0  1.28125 0 0  1.3125 0 0  1.34375 0 0  1.375 0 0  1.40625 0 0  1.4375 0 0  1.46875 0 0  1.5 0 0  0 0.03125 0  0.03125 0.03125 0  0.0625 0.03125 0  0.09375 0.03125 0  0.125 0.03125 0  0.15625 0.03125 0  0.1875 0.03125 0  0.21875 0.03125 0  0.25 0.03125 0  0.28125 0.03125 0  0.3125 0.03125 0  0.34375 0.03125 0  0.375 0.03125 0  0.40625 0.03125 0  0.4375 0.03125 0  0.46875 0.03125 0  0.5 0.03125 0  0.53125 0.03125 0  0.5625 0.03125 0  0.59375 0.03125 0  0.625 0.03125 0  0.65625 0.03125 0  0.6875 0.03125 0  0.71875 0.03125 0  0.75 0.03125 0  0.78125 0.03125 0  0.8125 0.03125 0  0.84375 0.03125 0  0.875 0.03125 0  0.90625 0.03125 0  0.9375 0.03125 0  0.96875 0.03125 0  1 0.03125 0  1.03125 0.03125 0  1.0625 0.03125 0  1.09375 0.03125 0  1.125 0.03125 0  1.15625 0.03125 0  1.1875 0.03125 0  1.21875 0.03125 0  1.25 0.03125 0  1.28125 0.03125 0  1.3125 0.03125 0  1.34375 0.03125 0  1.375 0.03125 0  1.40625 0.03125 0  1.4375 0.03125 0  1.46875 0.03125 0  1.5 0.03125 0  0 0.0625 0  0.03125 0.0625 0  0.0625 0.0625 0  0.09375 0.0625 0  0.125 0.0625 0  0.15625 0.0625 0  0.1875 0.0625 0  0.21875 0.0625 0  0.25 0.0625 0  0.28125 0.0625 0  0.3125 0.0625 0  0.34375 0.0625 0  0.375 0.0625 0  0.40625 0.0625 0  0.4375 0.0625 0  0.46875 0.0625 0  0.5 0.0625 0  0.53125 0.0625 0  0.5625 0.0625 0  0.59375 0.0625 0  0.625 0.0625 0  0.65625 0.0625 0  0.6875 0.0625 0  0.71875 0.0625 0  0.75 0.0625 0  0.78125 0.0625 0  0.8125 0.0625 0  0.84375 0.0625 0  0.875 0.0625 0  0.90625 0.0625 0  0.9375 0.0625 0  0.96875 0.0625 0  1 0.0625 0  1.03125 0.0625 0  1.0625 0.0625 0  1.09375 0.0625 0  1.125 0.0625 0  1.15625 0.0625 0  1.1875 0.0625 0  1.21875 0.0625 0  1.25 0.0625 0  1.28125 0.0625 0  1.3125 0.0625 0  1.34375 0.0625 0  1.375 0.0625 0  1.40625 0.0625 0  1.4375 0.0625 0  1.46875 0.0625 0  1.5 0.0625 0  0 0.09375 0  0.03125 0.09375 0  0.0625 0.09375 0  0.09375 0.09375 0  0.125 0.09375 0  0.15625 0.09375 0  0.1875 0.09375 0  0.21875 0.09375 0  0.25 0.09375 0  0.28125 0.09375 0  0.3125 0.09375 0  0.34375 0.09375 0  0.375 0.09375 0  0.40625 0.09375 0  0.4375 0.09375 0  0.46875 0.09375 0  0.5 0.09375 0  0.53125 0.09375 0  0.5625 0.09375 0  0.59375 0.09375 0  0.625 0.09375 0  0.65625 0.09375 0  0.6875 0.09375 0  0.71875 0.09375 0  0.75 0.09375 0  0.78125 0.09375 0  0.8125 0.09375 0  0.84375 0.09375 0  0.875 0.09375 0  0.90625 0.09375 0  0.9375 0.09375 0  0.96875 0.09375 0  1 0.09375 0  1.03125 0.09375 0  1.0625 0.09375 0  1.09375 0.09375 0  1.125 0.09375 0  1.15625 0.09375 0  1.1875 0.09375 0  1.21875 0.09375 0  1.25 0.09375 0  1.28125 0.09375 0  1.3125 0.09375 0  1.34375 0.09375 0  1.375 0.09375 0  1.40625 0.09375 0  1.4375 0.09375 0  1.46875 0.09375 0  1.5 0.09375 0  0 0.125 0  0.03125 0.125 0  0.0625 0.125 0  0.09375 0.125 0  0.125 0.125 0  0.15625 0.125 0  0.1875 0.125 0  0.21875 0.125 0  0.25 0.125 0  0.28125 0.125 0  0.3125 0.125 0  0.34375 0.125 0  0.375 0.125 0  0.40625 0.125 0  0.4375 0.125 0  0.46875 0.125 0  0.5 0.125 0  0.53125 0.125 0  0.5625 0.125 0  0.59375 0.125 0  0.625 0.125 0  0.65625 0.125 0  0.6875 0.125 0  0.71875 0.125 0  0.75 0.125 0  0.78125 0.125 0  0.8125 0.125 0  0.84375 0.125 0  0.875 0.125 0  0.90625 0.125 0  0.9375 0.125 0  0.96875 0.125 0  1 0.125 0  1.03125 0.125 0  1.0625 0.125 0  1.09375 0.125 0  1.125 0.125 0  1.15625 0.125 0  1.1875 0.125 0  1.21875 0.125 0  1.25 0.125 0  1.28125 0.125 0  1.3125 0.125 0  1.34375 0.125 0  1.375 0.125 0  1.40625 0.125 0  1.4375 0.125 0  1.46875 0.125 0  1.5 0.125 0  0 0.15625 0  0.03125 0.15625 0  0.0625 0.15625 0  0.09375 0.15625 0  0.125 0.15625 0  0.15625 0.15625 0  0.1875 0.15625 0  0.21875 0.15625 0  0.25 0.15625 0  0.28125 0.15625 0  0.3125 0.15625 0  0.34375 0.15625 0  0.375 0.15625 0  0.40625 0.15625 0  0.4375 0.15625 0  0.46875 0.15625 0  0.5 0.15625 0  0.53125 0.15625 0  0.5625 0.15625 0  0.59375 0.15625 0  0.625 0.15625 0  0.65625 0.15625 0  0.6875 0.15625 0  0.71875 0.15625 0  0.75 0.15625 0  0.78125 0.15625 0  0.8125 0.15625 0  0.84375 0.15625 0  0.875 0.15625 0  0.90625 0.15625 0  0.9375 0.15625 0  0.96875 0.15625 0  1 0.15625 0  1.03125 0.15625 0  1.0625 0.15625 0  1.09375 0.15625 0  1.125 0.15625 0  1.15625 0.15625 0  1.1875 0.15625 0  1.21875 0.15625 0  1.25 0.15625 0  1.28125 0.15625 0  1.3125 0.15625 0  1.34375 0.15625 0  1.375 0.15625 0  1.40625 0.15625 0  1.4375 0.15625 0  1.46875 0.15625 0  1.5 0.15625 0  0 0.1875 0  0.03125 0.1875 0  0.0625 0.1875 0  0.09375 0.1875 0  0.125 0.1875 0  0.15625 0.1875 0  0.1875 0.1875 0  0.21875 0.1875 0  0.25 0.1875 0  0.28125 0.1875 0  0.3125 0.1875 0  0.34375 0.1875 0  0.375 0.1875 0  0.40625 0.1875 0  0.4375 0.1875 0  0.46875 0.1875 0  0.5 0.1875 0  0.53125 0.1875 0  0.5625 0.1875 0  0.59375 0.1875 0  0.625 0.1875 0  0.65625 0.1875 0  0.6875 0.1875 0  0.71875 0.1875 0  0.75 0.1875 0  0.78125 0.1875 0  0.8125 0.1875 0  0.84375 0.1875 0  0.875 0.1875 0  0.90625 0.1875 0  0.9375 0.1875 0  0.96875 0.1875 0  1 0.1875 0  1.03125 0.1875 0  1.0625 0.1875 0  1.09375 0.1875 0  1.125 0.1875 0  1.15625 0.1875 0  1.1875 0.1875 0  1.21875 0.1875 0  1.25 0.1875 0  1.28125 0.1875 0  1.3125 0.1875 0  1.34375 0.1875 0  1.375 0.1875 0  1.40625 0.1875 0  1.4375 0.1875 0  1.46875 0.1875 0  1.5 0.1875 0  0 0.21875 0  0.03125 0.21875 0  0.0625 0.21875 0  0.09375 0.21875 0  0.125 0.21875 0  0.15625 0.21875 0  0.1875 0.21875 0  0.21875 0.21875 0  0.25 0.21875 0  0.28125 0.21875 0  0.3125 0.21875 0  0.34375 0.21875 0  0.375 0.21875 0  0.40625 0.21875 0  0.4375 0.21875 0  0.46875 0.21875 0  0.5 0.21875 0  0.53125 0.21875 0  0.5625 0.21875 0  0.59375 0.21875 0  0.625 0.21875 0  0.65625 0.21875 0  0.6875 0.21875 0  0.71875 0.21875 0  0.75 0.21875 0  0.78125 0.21875 0  0.8125 0.21875 0  0.84375 0.21875 0  0.875 0.21875 0  0.90625 0.21875 0  0.9375 0.21875 0  0.96875 0.21875 0  1 0.21875 0  1.03125 0.21875 0  1.0625 0.21875 0  1.09375 0.21875 0  1.125 0.21875 0  1.15625 0.21875 0  1.1875 0.21875 0  1.21875 0.21875 0  1.25 0.21875 0  1.28125 0.21875 0  1.3125 0.21875 0  1.34375 0.21875 0  1.375 0.21875 0  1.40625 0.21875 0  1.4375 0.21875 0  1.46875 0.21875 0  1.5 0.21875 0  0 0.25 0  0.03125 0.25 0  0.0625 0.25 0  0.09375 0.25 0  0.125 0.25 0  0.15625 0.25 0  0.1875 0.25 0  0.21875 0.25 0  0.25 0.25 0  0.28125 0.25 0  0.3125 0.25 0  0.34375 0.25 0  0.375 0.25 0  0.40625 0.25 0  0.4375 0.25 0  0.46875 0.25 0  0.5 0.25 0  0.53125 0.25 0  0.5625 0.25 0  0.59375 0.25 0  0.625 0.25 0  0.65625 0.25 0  0.6875 0.25 0  0.71875 0.25 0  0.75 0.25 0  0.78125 0.25 0  0.8125 0.25 0  0.84375 0.25 0  0.875 0.25 0  0.90625 0.25 0  0.9375 0.25 0  0.96875 0.25 0  1 0.25 0  1.03125 0.25 0  1.0625 0.25 0  1.09375 0.25 0  1.125 0.25 0  1.15625 0.25 0  1.1875 0.25 0  1.21875 0.25 0  1.25 0.25 0  1.28125 0.25 0  1.3125 0.25 0  1.34375 0.25 0  1.375 0.25 0  1.40625 0.25 0  1.4375 0.25 0  1.46875 0.25 0  1.5 0.25 0  0 0.28125 0  0.03125 0.28125 0  0.0625 0.28125 0  0.09375 0.28125 0  0.125 0.28125 0  0.15625 0.28125 0  0.1875 0.28125 0  0.21875 0.28125 0  0.25 0.28125 0  0.28125 0.28125 0  0.3125 0.28125 0  0.34375 0.28125 0  0.375 0.28125 0  0.40625 0.28125 0  0.4375 0.28125 0  0.46875 0.28125 0  0.5 0.28125 0  0.53125 0.28125 0  0.5625 0.28125 0  0.59375 0.28125 0  0.625 0.28125 0  0.65625 0.28125 0  0.6875 0.28125 0  0.71875 0.28125 0  0.75 0.28125 0  0.78125 0.28125 0  0.8125 0.28125 0  0.84375 0.28125 0  0.875 0.28125 0  0.90625 0.28125 0  0.9375 0.28125 0  0.96875 0.28125 0  1 0.28125 0  1.03125 0.28125 0  1.0625 0.28125 0  1.09375 0.28125 0  1.125 0.28125 0  1.15625 0.28125 0  1.1875 0.28125 0  1.21875 0.28125 0  1.25 0.28125 0  1.28125 0.28125 0  1.3125 0.28125 0  1.34375 0.28125 0  1.375 0.28125 0  1.40625 0.28125 0  1.4375 0.28125 0  1.46875 0.28125 0  1.5 0.28125 0  0 0.3125 0  0.03125 0.3125 0  0.0625 0.3125 0  0.09375 0.3125 0  0.125 0.3125 0  0.15625 0.3125 0  0.1875 0.3125 0  0.21875 0.3125 0  0.25 0.3125 0  0.28125 0.3125 0  0.3125 0.3125 0  0.34375 0.3125 0  0.375 0.3125 0  0.40625 0.3125 0  0.4375 0.3125 0  0.46875 0.3125 0  0.5 0.3125 0  0.53125 0.3125 0  0.5625 0.3125 0  0.59375 0.3125 0  0.625 0.3125 0  0.65625 0.3125 0  0.6875 0.3125 0  0.71875 0.3125 0  0.75 0.3125 0  0.78125 0.3125 0  0.8125 0.3125 0  0.84375 0.3125 0  0.875 0.3125 0  0.90625 0.3125 0  0.9375 0.3125 0  0.96875 0.3125 0  1 0.3125 0  1.03125 0.3125 0  1.0625 0.3125 0  1.09375 0.3125 0  1.125 0.3125 0  1.15625 0.3125 0  1.1875 0.3125 0  1.21875 0.3125 0  1.25 0.3125 0  1.28125 0.3125 0  1.3125 0.3125 0  1.34375 0.3125 0  1.375 0.3125 0  1.40625 0.3125 0  1.4375 0.3125 0  1.46875 0.3125 0  1.5 0.3125 0  0 0.34375 0  0.03125 0.34375 0  0.0625 0.34375 0  0.09375 0.34375 0  0.125 0.34375 0  0.15625 0.34375 0  0.1875 0.34375 0  0.21875 0.34375 0  0.25 0.34375 0  0.28125 0.34375 0  0.3125 0.34375 0  0.34375 0.34375 0  0.375 0.34375 0  0.40625 0.34375 0  0.4375 0.34375 0  0.46875 0.34375 0  0.5 0.34375 0  0.53125 0.34375 0  0.5625 0.34375 0  0.59375 0.34375 0  0.625 0.34375 0  0.65625 0.34375 0  0.6875 0.34375 0  0.71875 0.34375 0  0.75 0.34375 0  0.78125 0.34375 0  0.8125 0.34375 0  0.84375 0.34375 0  0.875 0.34375 0  0.90625 0.34375 0  0.9375 0.34375 0  0.96875 0.34375 0  1 0.34375 0  1.03125 0.34375 0  1.0625 0.34375 0  1.09375 0.34375 0  1.125 0.34375 0  1.15625 0.34375 0  1.1875 0.34375 0  1.21875 0.34375 0  1.25 0.34375 0  1.28125 0.34375 0  1.3125 0.34375 0  1.34375 0.34375 0  1.375 0.34375 0  1
[...]
<PointData  Scalars="f_65"> 
<DataArray  type="Float64"  Name="f_65"  format="ascii">8.2199470328606294e-01  7.3119291913233897e-01  6.5918949019115325e-01  6.6648855494887826e-01  6.7015593111714755e-01  6.7025914143559651e-01  6.6825337329789192e-01  6.6406752793484081e-01  6.5806957760016493e-01  6.5075253362095764e-01  6.4258693808616796e-01  6.3395174224914475e-01  6.2511381357663975e-01  6.1624026390555930e-01  6.0742508283765995e-01  5.9871554134573624e-01  5.9013195897973769e-01  5.8168005238251608e-01  5.7335762412300273e-01  5.6515778466119748e-01  5.5707042617053459e-01  5.4908303732515507e-01  5.4118145299184384e-01  5.3335080108206012e-01  5.2557668842182093e-01  5.1784651499038425e-01  5.1015071252515876e-01  5.0248367249961257e-01  4.9484418023463905e-01  4.8723525031239440e-01  4.7966343362300873e-01  4.7213758902525221e-01  4.6466750547950963e-01  4.5726147090749575e-01  4.4992429823995267e-01  4.4264906447944896e-01  4.3541409184398383e-01  4.2814670469616439e-01  4.2074212327354832e-01  4.1291315825348596e-01  4.0445167757822603e-01  3.9451686929913332e-01  3.8339817161286388e-01  3.6879752132637916e-01  3.4955019276326643e-01  3.5220588595657359e-01  2.1513949388287681e-01  3.7677428462545759e-01  3.8210290984244555e-01  6.9519026459754651e-01  5.3395068448723493e-01  4.0074758780489206e-01  4.1957333858321311e-01  4.4086797749012124e-01  4.5326047304220807e-01  4.6328361044274757e-01  4.7106207600672351e-01  4.7685108226379058e-01  4.8112081314031530e-01  4.8433513638478221e-01  4.8687570290313237e-01  4.8901647592659553e-01  4.9093254570308115e-01  4.9272597747398927e-01  4.9445252311139587e-01  4.9614188825923455e-01  4.9781038047260751e-01  4.9946761321524635e-01  5.0111948178183940e-01  5.0276916718790343e-01  5.0441729149785630e-01  5.0606186695519639e-01  5.0769838128259515e-01  5.0932017532543261e-01  5.1091913478804307e-01  5.1248661048191158e-01  5.1401440480170779e-01  5.1549563784932040e-01  5.1692532437357663e-01  5.1830057376593364e-01  5.1962031406580844e-01  5.2088456151102946e-01  5.2209264817548062e-01  5.2324039278580292e-01  5.2431264306165359e-01  5.2527360813066826e-01  5.2603916601234679e-01  5.2646218575948533e-01  5.2625398225331799e-01  5.2505862873787990e-01  5.2223424319315159e-01  5.1737118527106429e-01  5.0967009424675724e-01  4.9776501207676854e-01  4.9991463968271749e-01  4.1225988054918650e-01  5.3193742656478982e-01  6.8515364774001031e-01  7.2582660313014269e-01  5.9623765314552302e-01  4.3217587537264984e-01  4.5805140273777706e-01  4.8055259828343777e-01  4.8918009175457750e-01  4.9657181718467880e-01  5.0217498172053976e-01  5.0584142937986631e-01  5.0798592851667390e-01  5.0906524875568115e-01  5.0947264133788861e-01  5.0949792956289053e-01  5.0932853954840118e-01  5.0907305029097460e-01  5.0878873048693785e-01  5.0850350244523501e-01  5.0823013056074962e-01  5.0797404071349828e-01  5.0773706179492617e-01  5.0751897638221166e-01  5.0731808188373462e-01  5.0713141491102354e-01  5.0695495532341461e-01  5.0678394229517543e-01  5.0661332878771881e-01  5.0643832825129986e-01  5.0625495392090070e-01  5.0606043518707677e-01  5.0585340355148856e-01  5.0563381776571115e-01  5.0540253174802408e-01  5.0516057036304685e-01  5.0490731750341367e-01  5.0463793416120117e-01  5.0433530849231456e-01  5.0396198319048846e-01  5.0342929546045567e-01  5.0259538211933608e-01  5.0116779257288302e-01  4.9885597740099141e-01  4.9500278496701461e-01  4.8956796891855842e-01  4.8147117634626890e-01  4.7113127072422606e-01  4.7194120915762505e-01  3.9318994239439542e-01  5.2972863268813264e-01  6.0482660897054141e-01  7.2777914106225194e-01  5.8936309194947845e-01  4.1944871072634315e-01  4.5015938176434933e-01  4.7021094382556866e-01  4.7735065228211726e-01  4.8505542899312021e-01  4.9115723152258550e-01  4.9532945875413392e-01  4.9799972015765642e-01  4.9959955539546763e-01  5.0050981302493580e-01  5.0101776687851418e-01  5.0131181999111907e-01  5.0150173564873735e-01  5.0164547029492224e-01  5.0177126904337399e-01  5.0189215703974088e-01  5.0201397326608133e-01  5.0213919612961988e-01  5.0226846503522748e-01  5.0240104136121722e-01  5.0253489754807090e-01  5.0266679626182720e-01  5.0279254306449805e-01  5.0290747458848262e-01  5.0300712810152459e-01  5.0308793240976135e-01  5.0314771865739571e-01  5.0318588830693090e-01  5.0320321612844954e-01  5.0320125704332186e-01  5.0318147172265959e-01  5.0314333965378555e-01  5.0308166442473534e-01  5.0297863811630006e-01  5.0279543100229318e-01  5.0244288620621069e-01  5.0177814299131018e-01  5.0051869200183008e-01  4.9838020097595859e-01  4.9477498572996970e-01  4.8965546703769536e-01  4.8219532597299630e-01  4.7261048022103552e-01  4.7554390664188390e-01  3.9617989754543509e-01  5.3182831280148146e-01  6.1488076051900364e-01  7.3122259110485766e-01  5.9295137688583255e-01  4.2319301016354294e-01  4.5419363231058690e-01  4.7150215826470815e-01  4.7821728545751963e-01  4.8579029079028374e-01  4.9160023328965852e-01  4.9554392934686320e-01  4.9805334299612586e-01  4.9951718037131532e-01  5.0030206807847610e-01  5.0069071689804390e-01  5.0087013877070485e-01  5.0094952712029606e-01  5.0098653348469202e-01  5.0100924494305943e-01  5.0103070638791991e-01  5.0105698984449654e-01  5.0109098086443016e-01  5.0113377619097255e-01  5.0118497932076422e-01  5.0124259770820456e-01  5.0130298034854326e-01  5.0136106983247031e-01  5.0141109353153335e-01  5.0144761137377047e-01  5.0146661283814142e-01  5.0146625838475534e-01  5.0144698714324132e-01  5.0141102263013304e-01  5.0136140389286299e-01  5.0130081398871540e-01  5.0122953443305707e-01  5.0114277903953275e-01  5.0102286028758714e-01  5.0083132563576194e-01  5.0048003382332595e-01  4.9983060304993854e-01  4.9860805157275678e-01  4.9655122242353344e-01  4.9309230047929198e-01  4.8825028462428960e-01  4.8120946554463995e-01  4.7221080766024232e-01  4.7585661509354937e-01  3.9729090604973416e-01  5.3522104744411758e-01  6.1803305793017471e-01  7.3351805527029890e-01  5.9481824031101393e-01  4.2452285340585322e-01  4.5482329829200313e-01  4.7117868033371707e-01  4.7802253960249269e-01  4.8534613707128882e-01  4.9094951807563875e-01  4.9481426322530159e-01  4.9729288793060061e-01  4.9873948330519458e-01  4.9951519547582546e-01  4.9989829480072806e-01  5.0007345602628417e-01  5.0014884282012639e-01  5.0018190393953055e-01  5.0020105260844172e-01  5.0022008168518839e-01  5.0024619030283235e-01  5.0028357975800830e-01  5.0033456704395740e-01  5.0039952153535494e-01  5.0047630213110261e-01  5.0055987562606841e-01  5.0064258926757399e-01  5.0071538221410961e-01  5.0076978764942370e-01  5.0080002823687375e-01  5.0080426838577785e-01  5.0078451421553627e-01  5.0074541830406416e-01  5.0069253564840399e-01  5.0063060817140670e-01  5.0056129736300115e-01  5.0048056554169629e-01  5.0037107785071944e-01  5.0019473965364170e-01  4.9986444339626340e-01  4.9924452178546314e-01  4.9806636446874181e-01  4.9607914704300810e-01  4.9273606460518321e-01  4.8806655103272584e-01  4.8130320231002022e-01  4.7262224151215282e-01  4.7673172492003141e-01  3.9842821863570227e-01  5.3740603713001411e-01  6.2094015320957774e-01  7.3538156776162478e-01  5.9648698496177577e-01  4.2562575936613734e-01  4.5551403698848392e-01  4.7159301862286251e-01  4.7836013555494838e-01  4.8541443115068988e-01  4.9091651580684087e-01  4.9473622668291473e-01  4.9718000537393792e-01  4.9860003012612941e-01  4.9935607046269748e-01  4.9972144104491945e-01  4.9987892121415239e-01  4.9993607346489288e-01  4.9995053706914216e-01  4.9995144458192908e-01  4.9995393756910755e-01  4.9996717404262170e-01  4.9999762804381631e-01  5.0004987476309137e-01  5.0012585047450298e-01  5.0022327826440360e-01  5.0033461484792119e-01  5.0044726012424867e-01  5.0054581518861929e-01  5.0061616534373865e-01  5.0064968640525465e-01  5.0064527578250917e-01  5.0060838531147644e-01  5.0054815924162577e-01  5.0047423089435528e-01  5.0039423618649115e-01  5.0031142142435281e-01  5.0022229497284543e-01  5.0010944487929510e-01  4.9993458192446588e-01  4.9961077406629806e-01  4.9900383597442277e-01  4.9784848107901791e-01  4.9590121331402198e-01  4.9262496770663350e-01  4.8806204307719092e-01  4.8146281802235846e-01  4.7298147261961299e-01  4.7738871133502886e-01  3.9928602746191066e-01  5.3945790349610678e-01  6.2307616938409360e-01  7.3681702340942368e-01  5.9771973131471368e-01  4.2637525407516635e-01  4.5604207696208188e-01  4.7192802395357714e-01  4.7856292785251725e-01  4.8548290154790014e-01  4.9095133460989265e-01  4.9473778852873868e-01  4.9715837546958136e-01  4.9856505618683600e-01  4.9931114306947666e-01  4.9966552280177429e-01  4.9980993665755707e-01  4.9985172170461656e-01  4.9984877872475436e-01  4.9983120969867861e-01  4.9981627832875292e-01  4.9981618650112292e-01  4.9984133792010488e-01  4.9990078445910680e-01  4.9999993096998746e-01  5.0013684752806775e-01  5.0029982427821884e-01  5.0046699967551189e-01  5.0061077486586769e-01  5.0070674949286897e-01  5.0074254809471308e-01  5.0072056556551769e-01  5.0065402050683061e-01  5.0056029994952411e-01  5.0045530491899415e-01  5.0035024091496949e-01  5.0024962258918393e-01  5.0014973055437784e-01  5.0003220188706010e-01  4.9985769202096753e-01  4.9953856888153664e-01  4.9894088914665352e-01  4.9780100990882487e-01  4.9587948994651232e-01  4.9264612814165948e-01  4.8815024709198396e-01  4.8165969222296817e-01  4.7331149202703710e-01  4.7793543229348728e-01  3.9997630262624034e-01  5.4112614227860512e-01  6.2495569882393776e-01  7.3792404410949319e-01  5.9863371747245320e-01  4.2688925827797963e-01  4.5639081759456729e-01  4.7212068582976319e-01  4.7867226888464881e-01  4.8552902082882288e-01  4.9097214437692721e-01  4.9473587025292215e-01  4.9714911499845976e-01  4.9855326753991558e-01  4.9929579240656730e-01  4.9964354785684945e-01  4.9977734172793614e-01  4.9980431668532477e-01  4.9978181651959780e-01  4.9974132069874860e-01  4.9970272207794586e-01  4.9968238846751872e-01  4.9969780736027186e-01  4.9976662172871544e-01  4.9990146919380629e-01  5.0010228097573395e-01  5.0035068752439282e-01  5.0060684030654057e-01  5.0081870094897718e-01  5.0094333470996033e-01  5.0096590326604351e-01  5.0090059074787885e-01  5.0077748620884044e-01  5.0062811513010397e-01  5.0047670831630753e-01  5.0033748298729419e-01  5.0021451616835511e-01  5.0010201608260996e-01  4.9997915542879784e-01  4.9980443069897662e-01  4.9948869266898704e-01  4.9889744497009558e-01  4.9776763890852677e-01  4.9586238218219714e-01  4.9265597267388017e-01  4.8820362554994123e-01  4.8178631061451699e-01  4.7353204250495290e-01  4.7832130288398383e-01  4.0046907818893085e-01  5.4246298020327144e-01  6.2636464343356757e-01  7.3877864849859165e-01  5.9931455942473433e-01  4.2724636318473813e-01  4.5662433831767507e-01  4.7223888340371595e-01  4.7874045899213930e-01  4.8555362224839599e-01  4.9097632810576153e-01  4.9473057175384405e-01  4.9714449804328542e-01  4.9854948073806382e-01  4.9929074499485920e-01  4.9963354233756896e-01  4.9975687057005241e-01  4.9976730338594216e-01  4.9971951599467990e-01  4.9964786225833507e-01  4.9957273509208233e-01  4.9951734159141209e-01  4.9951176312528867e-01  4.9958836336842255e-01  4.9977524520673966e-01  5.0007839544022914e-01  5.0046953855202658e-01  5.0087141692360149e-01  5.0118005491380924e-01  5.0132060900758002e-01  5.0128703203322000e-01  5.0112726101245009e-01  5.0090507615662760e-01  5.0067281349785719e-01  5.0046219647891632e-01  5.0028635482749817e-01  5.0014452700165513e-01  5.0002545997526215e-01  4.9990372164631908e-01  4.9973449477304754e-01  4.9942657062624540e-01  4.9884456589328213e-01  4.9772565345131409e-01  4.9583472494742403e-01  4.9264944587584686e-01  4.8822994328761093e-01  4.8186729654663546e-01  4.7368581617698780e-01  4.7860537966672267e-01  4.0083701493604235e-01  5.4354548876034636e-01  6.2747806179642629e-01  7.3943998597448934e-01  5.9982733718341819e-01  4.2749984206965802e-01  4.5678513550517441e-01  4.7231373741917615e-01  4.7878208464046812e-01  4.8556309156483807e-01  4.9097419171864654e-01  4.9472655733226578e-01  4.9714370285960513e-01  4.9855174535139479e-01  4.9929446181375214e-01  4.9963463801219360e-01  4.9974887282957392e-01  4.9974201530226237e-01  4.9966333657405304e-01  4.9955267231884587e-01  4.9942129552435266e-01  4.9931100869002421e-01  4.9926465505142159e-01  4.9934087529379928e-01  4.9960316273988042e-01  5.0007177490065879e-01  5.0070921514461786e-01  5.0135171451435168e-01  5.0177855152843531e-01  5.0187024908873357e-01  5.0167639724940538e-01  5.0132933221703790e-01  5.0094997043602296e-01  5.0061129198178234e-01  5.0034201404730461e-01  5.0014280719915161e-01  4.9999973297600070e-01  4.9989125641449766e-01  4.9978518121743765e-01  4.9963280959710926e-01  4.9934107150308837e-01  4.9877408572383392e-01  4.9766953002701853e-01  4.9579399172291705e-01  4.9262796412142895e-01  4.8823600905428977e-01  4.8191666273855038e-01  4.7379455332261394e-01  4.7881785115976538e-01  4.0111799193890785e-01  5.4442412083484160e-01  6.2835743210200046e-01  7.3994953507380468e-01  6.0021557391098512e-01  4.2768385162035744e-01  4.5690140542517627e-01  4.7236608408882574e-01  4.7881248155781680e-01  4.8557071730691098e-01  4.9097606573617264e-01  4.9472967373727927e-01  4.9715199535423588e-01  4.9856617069361481e-01  4.9931412120548579e-01  4.9965602403153203e-01  4.9976596756777170e-01  4.9974502547479643e-01  4.9963580573495503e-01  4.9948302355631397e-01  4.9927062121266969e-01  4.9909132544929941e-01  4.9896217615984639e-01  4.9902253210908482e-01  4.9939138828729562e-01  5.0012531921747538e-01  5.0121287049707386e-01  5.0224877784272326e-01  5.0274909180255301e-01  5.0258488618626496e-01  5.0201215978307479e-01  5.0133896916730791e-01  5.0075166989207154e-01  5.0031561234163280e-01  5.0002558321904389e-01  4.9984834522531718e-01  4.9974543516395509e-01  4.9968076370378511e-01  4.9961500136243475e-01  4.9949687556382488e-01  4.9923317135410239e-01  4.9868900732174087e-01  4.9760363227067744e-01  4.9574582964758829e-01  4.9259887756611126e-01  4.8823155322136635e-01  4.8194775870537238e-01  4.7387549763791986e-01  4.7898079323511294e-01  4.0133926234239559e-01  5.4513665472912931e-01  6.2905698599209048e-01  7.4033564996623780e-01  6.0050664359350170e-01  4.2781739859744305e-01  4.5698696301389991e-01  4.7240474867921817e-01  4.7883722017214070e-01  4.8557971196233435e-01  4.9098300013880519e-01  4.9474024666310740e-01  4.9717036239073426e-01  4.9859441838120627e-01  4.9935290742746635e-01  4.9970415281137454e-01  4.9982006972385346e-01  4.9979656107642029e-01  4.9967081632016330e-01  4.9948224432305421e-01  4.9917716341061824e-01  4.9893988502169750e-01  4.9863512235888541e-01  4.9869211082045195e-01  4.9915251922109782e-01  5.0032266873307851e-01  5.0231707493926359e-01  5.0392546290775664e-01  5.0419248002996764e-01  5.0324825800801731e-01  5.0193033223558359e-01  5.0080386679687316e-01  5.0003997753212281e-01  4.9960630248585558e-01  4.9940604148101941e-01  4.9934573809512489e-01  4.9935499652864301e-01  4.9938464582564668e-01  4.9939278266863446e-01  4.9933037122366475e-01  4.9910801069863781e-01  4.9859466423723542e-01  4.9753299367303355e-01  4.9569495609145992e-01  4.9256689663843900e-01  4.8822173439579891e-01  4.8196714218098619e-01  4.7393665514973432e-01  4.7910506069155023e-01  4.0151444137214559e-01  5.4570340239922344e-01  6.2960637472900161e-01  7.4061830167682818e-01  6.0071822480975334e-01  4.2791138431067283e-01  4.5704866422959328e-01  4.7243310706633340e-01  4.7885732790444879e-01  4.8558949069019558e-01  4.9099335760643370e-01  4.9475613561024562e-01  4.9719619265313741e-01  4.9863352156395985e-01  4.9940831033168015e-01  4.9977841926413485e-01  4.9991488595981370e-01  4.9990968315392570e-01  4.9979702067959708e-01  4.9959731368138910e-01  4.9923999504289207e-01  4.9897133212137257e-01  4.9833528575787545e-01  4.9850611460770028e-01  4.9875105058527153e-01  5.0090946567813388e-01  5.0477239640912575e-01  5.0678140123033255e-01  5.0581598638565817e-01  5.0305524736775686e-01  5.0062940266154621e-01  4.9916045221923050e-01  4.9848512787279659e-01  4.9831773140873892e-01  4.9841561395111728e-01  4.9861811765485919e-01  4.9883445003577137e-01  4.9901704971703364e-01  4.9913380116152323e-01  4.9914686646440853e-01  4.9897663021376898e-01  4.9849962856844754e-01  4.9746410866881463e-01  4.9564629444934427e-01  4.9253592502997634e-01  4.8820994409805157e-01  4.8197852712210554e-01  4.7398203471663430e-01  4.7919636315217778e-01  4.0165047909931556e-01  5.4613529821624107e-01  6.3002194650345145e-01  7.4081181187345335e-01  6.0086216909346157e-01  4.2797249246997465e-01  4.5709023217554567e-01  4.7245249395475708e-01  4.7887242459181872e-01  4.8559843017070498e-01  4.9100436164700872e-01  4.9477325254357918e-01  4.9722365739476609e-01  4.9867544550925919e-01  4.9946960934391427e-01  4.9986512330488519e-01  5.0003428664133331e-01  5.0006907332905193e-01  5.0000445204565891e-01  4.9984375124237773e-01  4.9953646157552672e-01  4.9925702833778690e-01  4.9833551866144660e-01  4.9897674497195488e-01  4.9808308926232092e-01  5.0311026733864928e-01  5.0954110872200820e-01  5.1009174530483059e-01  5.0598060209380036e-01  5.0019129850452171e-01  4.9694316074666478e-01  4.9583941511415669e-01  4.9592746936249593e-01  4.9647468369658487e-01  4.9713757984977641e-01  4.9775292281756695e-01  4.9825639084148177e-01  4.9863238748248462e-01  4.9887673653519771e-01  4.9897309702084680e-01  4.9885725535600994e-01  4.9841625747517559e-01  4.9740535264605840e-01  4.9560556812518924e-01  4.9250999037529641e-01  4.8819919356127278e-01  4.8198469409795119e-01  4.7401416940028784e-01  4.7925822507712090e-01  4.0175122116950013e-01  5.4643824066719160e-01  6.3031296985775664e-01  7.4092607458406046e-01  6.0094633210873660e-01  4.2800491325613965e-01  4.5711381382609756e-01  4.7246342896922133e-01  4.7888171207870328e-01  4.8560462115388026e-01  4.9101276754572287e-01  4.9478651587116629e-01  4.9724493478694126e-01  4.9870820939508742e-01  4.9951851961240901e-01  4.9993661251904470e-01  5.0013731540275597e-01  5.0021583602378783e-01  5.0021156650938581e-01  5.0012652392203794e-01  4.9993888667743014e-01  4.9967185787117463e-01  4.9885508309930920e-01  4.9950429785263001e-01  4.9534952385697167e-01  5.0636516818062893e-01  5.1296072907767987e-01  5.0880744482550111e-01  5.0109424644919043e-01  4.9188121352805197e-01  4.9034873536596441e-01  4.9117759098605418e-01  4.9287962092715393e-01  4.9454929740751807e-01  4.9592521993913108e-01  4.9698980113583469e-01  4.9777539832370288e-01  4.9832765319581224e-01  4.9868161153776286e-01  4.9884606188756681e-01  4.9877277741763754e-01  4.9835884579698103e-01  4.9736576614738309e-01  4.9557859687757444e-01  4.9249294894219381e-01  4.8819216880128530e-01  4.8198785528803723e-01  4.7403484084817460e-01  4.7929295063116167e-01  4.0181885130377099e-01  5.4661534407925805e-01  6.3048438473402990e-01  7.4096694381516248e-01  6.0097527591827238e-01  4.2801097969956670e-01  4.5712050840871965e-01  4.7246604265055814e-01  4.7888445683607084e-01  4.8560651880091937e-01  4.9101592333236727e-01  4.9479161855043341e-01  4.9725307665214791e-01  4.9872057987525215e-01  4.9953682675090189e-01  4.9996329105141457e-01  5.0017590620273156e-01  5.0027148685036016e-01  5.0029133212205634e-01  5.0023968146004261e-01  5.0009907900868500e-01  4.9981279423659475e-01  4.9921617326365780e-01  4.9859021751289395e-01  4.9286719320083727e-01  5.0674471967077783e-01  4.9967392925824994e-01  5.0131220488798889e-01  4.9272000692922957e-01  4.6707101983663663e-01  4.8212270658395912e-01  4.8774852122141404e-01  4.9111059198392526e-01  4.9358243827701692e-01  4.9537312682246754e-01  4.9666523841480309e-01  4.9758139293467041e-01  4.9821013311543144e-01  4.9860928365285717e-01  4.9880056598355488e-01  4.9874336122300233e-01  4.9833928505997405e-01  4.9735251368886368e-01  4.9556981191988880e-01  4.9248763366895631e-01  4.8819078263726168e-01  4.8198948490373178e-01  4.7404517706885341e-01  4.7930188940061330e