<?xml version="1.0"?>
<VTKFile type="UnstructuredGrid"  version="0.1"  >
<UnstructuredGrid>
<Piece  NumberOfPoints="1617" NumberOfCells="3072">
<Points>
<DataArray  type="Float64"  NumberOfComponents="3"  format="ascii">0 0 0  0.03125 0 0  0.0625 0 0  0.09375 0 0  0.125 0 0  0.15625 0 0  0.1875 0 0  0.21875 0 0  0.25 0 0  0.28125 0 0  0.3125 0 0  0.34375 0 0  0.375 0 0  0.40625 0 0  0.4375 0 0  0.46875 0 0  0.5 0 0  0.53125 0 0  0.5625 0 0  0.59375 0 0  0.625 0 0  0.65625 0 0  0.6875 0 0  0.71875 0 0  0.75 0 0  0.78125 0 0  0.8125 0 0  0.84375 0 0  0.875 0 0  0.90625 0 0  0.9375 0 0  0.96875 0 0  1 0 0  1.03125 0 0  1.0625 0 0  1.09375 0 0  1.125 0 0  1.15625 0 0  1.1875 0 0  1.21875 0 0  1.25 0 0  1.28125 0 0  1.3125 0 0  1.34375 0 0  1.375 0 0  1.40625 0 0  1.4375 0 0  1.46875 0 0  1.5 0 0  0 0.03125 0  0.03125 0.03125 0  0.0625 0.03125 0  0.09375 0.03125 0  0.125 0.03125 0  0.15625 0.03125 0  0.1875 0.03125 0  0.21875 0.03125 0  0.25 0.03125 0  0.28125 0.03125 0  0.3125 0.03125 0  0.34375 0.03125 0  0.375 0.03125 0  0.40625 0.03125 0  0.4375 0.03125 0  0.46875 0.03125 0  0.5 0.03125 0  0.53125 0.03125 0  0.5625 0.03125 0  0.59375 0.03125 0  0.625 0.03125 0  0.65625 0.03125 0  0.6875 0.03125 0  0.71875 0.03125 0  0.75 0.03125 0  0.78125 0.03125 0  0.8125 0.03125 0  0.84375 0.03125 0  0.875 0.03125 0  0.90625 0.03125 0  0.9375 0.03125 0  0.96875 0.03125 0  1 0.03125 0  1.03125 0.03125 0  1.0625 0.03125 0  1.09375 0.03125 0  1.125 0.03125 0  1.15625 0.03125 0  1.1875 0.03125 0  1.21875 0.03125 0  1.25 0.03125 0  1.28125 0.03125 0  1.3125 0.03125 0  1.34375 0.03125 0  1.375 0.03125 0  1.40625 0.03125 0  1.4375 0.03125 0  1.46875 0.03125 0  1.5 0.03125 0  0 0.0625 0  0.03125 0.0625 0  0.0625 0.0625 0  0.09375 0.0625 0  0.125 0.0625 0  0.15625 0.0625 0  0.1875 0.0625 0  0.21875 0.0625 0  0.25 0.0625 0  0.28125 0.0625 0  0.3125 0.0625 0  0.34375 0.0625 0  0.375 0.0625 0  0.40625 0.0625 0  0.4375 0.0625 0  0.46875 0.0625 0  0.5 0.0625 0  0.53125 0.0625 0  0.5625 0.0625 0  0.59375 0.0625 0  0.625 0.0625 0  0.65625 0.0625 0  0.6875 0.0625 0  0.71875 0.0625 0  0.75 0.0625 0  0.78125 0.0625 0  0.8125 0.0625 0  0.84375 0.0625 0  0.875 0.0625 0  0.90625 0.0625 0  0.9375 0.0625 0  0.96875 0.0625 0  1 0.0625 0  1.03125 0.0625 0  1.0625 0.0625 0  1.09375 0.0625 0  1.125 0.0625 0  1.15625 0.0625 0  1.1875 0.0625 0  1.21875 0.0625 0  1.25 0.0625 0  1.28125 0.0625 0  1.3125 0.0625 0  1.34375 0.0625 0  1.375 0.0625 0  1.40625 0.0625 0  1.4375 0.0625 0  1.46875 0.0625 0  1.5 0.0625 0  0 0.09375 0  0.03125 0.09375 0  0.0625 0.09375 0  0.09375 0.09375 0  0.125 0.09375 0  0.15625 0.09375 0  0.1875 0.09375 0  0.21875 0.09375 0  0.25 0.09375 0  0.28125 0.09375 0  0.3125 0.09375 0  0.34375 0.09375 0  0.375 0.09375 0  0.40625 0.09375 0  0.4375 0.09375 0  0.46875 0.09375 0  0.5 0.09375 0  0.53125 0.09375 0  0.5625 0.09375 0  0.59375 0.09375 0  0.625 0.09375 0  0.65625 0.09375 0  0.6875 0.09375 0  0.71875 0.09375 0  0.75 0.09375 0  0.78125 0.09375 0  0.8125 0.09375 0  0.84375 0.09375 0  0.875 0.09375 0  0.90625 0.09375 0  0.9375 0.09375 0  0.96875 0.09375 0  1 0.09375 0  1.03125 0.09375 0  1.0625 0.09375 0  1.09375 0.09375 0  1.125 0.09375 0  1.15625 0.09375 0  1.1875 0.09375 0  1.21875 0.09375 0  1.25 0.09375 0  1.28125 0.09375 0  1.3125 0.09375 0  1.34375 0.09375 0  1.375 0.09375 0  1.40625 0.09375 0  1.4375 0.09375 0  1.46875 0.09375 0  1.5 0.09375 0  0 0.125 0  0.03125 0.125 0  0.0625 0.125 0  0.09375 0.125 0  0.125 0.125 0  0.15625 0.125 0  0.1875 0.125 0  0.21875 0.125 0  0.25 0.125 0  0.28125 0.125 0  0.3125 0.125 0  0.34375 0.125 0  0.375 0.125 0  0.40625 0.125 0  0.4375 0.125 0  0.46875 0.125 0  0.5 0.125 0  0.53125 0.125 0  0.5625 0.125 0  0.59375 0.125 0  0.625 0.125 0  0.65625 0.125 0  0.6875 0.125 0  0.71875 0.125 0  0.75 0.125 0  0.78125 0.125 0  0.8125 0.125 0  0.84375 0.125 0  0.875 0.125 0  0.90625 0.125 0  0.9375 0.125 0  0.96875 0.125 0  1 0.125 0  1.03125 0.125 0  1.0625 0.125 0  1.09375 0.125 0  1.125 0.125 0  1.15625 0.125 0  1.1875 0.125 0  1.21875 0.125 0  1.25 0.125 0  1.28125 0.125 0  1.3125 0.125 0  1.34375 0.125 0  1.375 0.125 0  1.40625 0.125 0  1.4375 0.125 0  1.46875 0.125 0  1.5 0.125 0  0 0.15625 0  0.03125 0.15625 0  0.0625 0.15625 0  0.09375 0.15625 0  0.125 0.15625 0  0.15625 0.15625 0  0.1875 0.15625 0  0.21875 0.15625 0  0.25 0.15625 0  0.28125 0.15625 0  0.3125 0.15625 0  0.34375 0.15625 0  0.375 0.15625 0  0.40625 0.15625 0  0.4375 0.15625 0  0.46875 0.15625 0  0.5 0.15625 0  0.53125 0.15625 0  0.5625 0.15625 0  0.59375 0.15625 0  0.625 0.15625 0  0.65625 0.15625 0  0.6875 0.15625 0  0.71875 0.15625 0  0.75 0.15625 0  0.78125 0.15625 0  0.8125 0.15625 0  0.84375 0.15625 0  0.875 0.15625 0  0.90625 0.15625 0  0.9375 0.15625 0  0.96875 0.15625 0  1 0.15625 0  1.03125 0.15625 0  1.0625 0.15625 0  1.09375 0.15625 0  1.125 0.15625 0  1.15625 0.15625 0  1.1875 0.15625 0  1.21875 0.15625 0  1.25 0.15625 0  1.28125 0.15625 0  1.3125 0.15625 0  1.34375 0.15625 0  1.375 0.15625 0  1.40625 0.15625 0  1.4375 0.15625 0  1.46875 0.15625 0  1.5 0.15625 0  0 0.1875 0  0.03125 0.1875 0  0.0625 0.1875 0  0.09375 0.1875 0  0.125 0.1875 0  0.15625 0.1875 0  0.1875 0.1875 0  0.21875 0.1875 0  0.25 0.1875 0  0.28125 0.1875 0  0.3125 0.1875 0  0.34375 0.1875 0  0.375 0.1875 0  0.40625 0.1875 0  0.4375 0.1875 0  0.46875 0.1875 0  0.5 0.1875 0  0.53125 0.1875 0  0.5625 0.1875 0  0.59375 0.1875 0  0.625 0.1875 0  0.65625 0.1875 0  0.6875 0.1875 0  0.71875 0.1875 0  0.75 0.1875 0  0.78125 0.1875 0  0.8125 0.1875 0  0.84375 0.1875 0  0.875 0.1875 0  0.90625 0.1875 0  0.9375 0.1875 0  0.96875 0.1875 0  1 0.1875 0  1.03125 0.1875 0  1.0625 0.1875 0  1.09375 0.1875 0  1.125 0.1875 0  1.15625 0.1875 0  1.1875 0.1875 0  1.21875 0.1875 0  1.25 0.1875 0  1.28125 0.1875 0  1.3125 0.1875 0  1.34375 0.1875 0  1.375 0.1875 0  1.40625 0.1875 0  1.4375 0.1875 0  1.46875 0.1875 0  1.5 0.1875 0  0 0.21875 0  0.03125 0.21875 0  0.0625 0.21875 0  0.09375 0.21875 0  0.125 0.21875 0  0.15625 0.21875 0  0.1875 0.21875 0  0.21875 0.21875 0  0.25 0.21875 0  0.28125 0.21875 0  0.3125 0.21875 0  0.34375 0.21875 0  0.375 0.21875 0  0.40625 0.21875 0  0.4375 0.21875 0  0.46875 0.21875 0  0.5 0.21875 0  0.53125 0.21875 0  0.5625 0.21875 0  0.59375 0.21875 0  0.625 0.21875 0  0.65625 0.21875 0  0.6875 0.21875 0  0.71875 0.21875 0  0.75 0.21875 0  0.78125 0.21875 0  0.8125 0.21875 0  0.84375 0.21875 0  0.875 0.21875 0  0.90625 0.21875 0  0.9375 0.21875 0  0.96875 0.21875 0  1 0.21875 0  1.03125 0.21875 0  1.0625 0.21875 0  1.09375 0.21875 0  1.125 0.21875 0  1.15625 0.21875 0  1.1875 0.21875 0  1.21875 0.21875 0  1.25 0.21875 0  1.28125 0.21875 0  1.3125 0.21875 0  1.34375 0.21875 0  1.375 0.21875 0  1.40625 0.21875 0  1.4375 0.21875 0  1.46875 0.21875 0  1.5 0.21875 0  0 0.25 0  0.03125 0.25 0  0.0625 0.25 0  0.09375 0.25 0  0.125 0.25 0  0.15625 0.25 0  0.1875 0.25 0  0.21875 0.25 0  0.25 0.25 0  0.28125 0.25 0  0.3125 0.25 0  0.34375 0.25 0  0.375 0.25 0  0.40625 0.25 0  0.4375 0.25 0  0.46875 0.25 0  0.5 0.25 0  0.53125 0.25 0  0.5625 0.25 0  0.59375 0.25 0  0.625 0.25 0  0.65625 0.25 0  0.6875 0.25 0  0.71875 0.25 0  0.75 0.25 0  0.78125 0.25 0  0.8125 0.25 0  0.84375 0.25 0  0.875 0.25 0  0.90625 0.25 0  0.9375 0.25 0  0.96875 0.25 0  1 0.25 0  1.03125 0.25 0  1.0625 0.25 0  1.09375 0.25 0  1.125 0.25 0  1.15625 0.25 0  1.1875 0.25 0  1.21875 0.25 0  1.25 0.25 0  1.28125 0.25 0  1.3125 0.25 0  1.34375 0.25 0  1.375 0.25 0  1.40625 0.25 0  1.4375 0.25 0  1.46875 0.25 0  1.5 0.25 0  0 0.28125 0  0.03125 0.28125 0  0.0625 0.28125 0  0.09375 0.28125 0  0.125 0.28125 0  0.15625 0.28125 0  0.1875 0.28125 0  0.21875 0.28125 0  0.25 0.28125 0  0.28125 0.28125 0  0.3125 0.28125 0  0.34375 0.28125 0  0.375 0.28125 0  0.40625 0.28125 0  0.4375 0.28125 0  0.46875 0.28125 0  0.5 0.28125 0  0.53125 0.28125 0  0.5625 0.28125 0  0.59375 0.28125 0  0.625 0.28125 0  0.65625 0.28125 0  0.6875 0.28125 0  0.71875 0.28125 0  0.75 0.28125 0  0.78125 0.28125 0  0.8125 0.28125 0  0.84375 0.28125 0  0.875 0.28125 0  0.90625 0.28125 0  0.9375 0.28125 0  0.96875 0.28125 0  1 0.28125 0  1.03125 0.28125 0  1.0625 0.28125 0  1.09375 0.28125 0  1.125 0.28125 0  1.15625 0.28125 0  1.1875 0.28125 0  1.21875 0.28125 0  1.25 0.28125 0  1.28125 0.28125 0  1.3125 0.28125 0  1.34375 0.28125 0  1.375 0.28125 0  1.40625 0.28125 0  1.4375 0.28125 0  1.46875 0.28125 0  1.5 0.28125 0  0 0.3125 0  0.03125 0.3125 0  0.0625 0.3125 0  0.09375 0.3125 0  0.125 0.3125 0  0.15625 0.3125 0  0.1875 0.3125 0  0.21875 0.3125 0  0.25 0.3125 0  0.28125 0.3125 0  0.3125 0.3125 0  0.34375 0.3125 0  0.375 0.3125 0  0.40625 0.3125 0  0.4375 0.3125 0  0.46875 0.3125 0  0.5 0.3125 0  0.53125 0.3125 0  0.5625 0.3125 0  0.59375 0.3125 0  0.625 0.3125 0  0.65625 0.3125 0  0.6875 0.3125 0  0.71875 0.3125 0  0.75 0.3125 0  0.78125 0.3125 0  0.8125 0.3125 0  0.84375 0.3125 0  0.875 0.3125 0  0.90625 0.3125 0  0.9375 0.3125 0  0.96875 0.3125 0  1 0.3125 0  1.03125 0.3125 0  1.0625 0.3125 0  1.09375 0.3125 0  1.125 0.3125 0  1.15625 0.3125 0  1.1875 0.3125 0  1.21875 0.3125 0  1.25 0.3125 0  1.28125 0.3125 0  1.3125 0.3125 0  1.34375 0.3125 0  1.375 0.3125 0  1.40625 0.3125 0  1.4375 0.3125 0  1.46875 0.3125 0  1.5 0.3125 0  0 0.34375 0  0.03125 0.34375 0  0.0625 0.34375 0  0.09375 0.34375 0  0.125 0.34375 0  0.15625 0.34375 0  0.1875 0.34375 0  0.21875 0.34375 0  0.25 0.34375 0  0.28125 0.34375 0  0.3125 0.34375 0  0.34375 0.34375 0  0.375 0.34375 0  0.40625 0.34375 0  0.4375 0.34375 0  0.46875 0.34375 0  0.5 0.34375 0  0.53125 0.34375 0  0.5625 0.34375 0  0.59375 0.34375 0  0.625 0.34375 0  0.65625 0.34375 0  0.6875 0.34375 0  0.71875 0.34375 0  0.75 0.34375 0  0.78125 0.34375 0  0.8125 0.34375 0  0.84375 0.34375 0  0.875 0.34375 0  0.90625 0.34375 0  0.9375 0.34375 0  0.96875 0.34375 0  1 0.34375 0  1.03125 0.34375 0  1.0625 0.34375 0  1.09375 0.34375 0  1.125 0.34375 0  1.15625 0.34375 0  1.1875 0.34375 0  1.21875 0.34375 0  1.25 0.34375 0  1.28125 0.34375 0  1.3125 0.34375 0  1.34375 0.34375 0  1.375 0.34375 0  1
[...]
<PointData  Scalars="f_65"> 
<DataArray  type="Float64"  Name="f_65"  format="ascii">7.3558138185599886e-01  3.0799503197772798e-01  3.0264244573099763e-01  3.3456029143746946e-01  3.4693251078732340e-01  3.6148798831485501e-01  3.7376052154180622e-01  3.8444790896774766e-01  3.9376470945040976e-01  4.0203491507841799e-01  4.0958891607710646e-01  4.1670658181038250e-01  4.2360186498237240e-01  4.3042284534063935e-01  4.3726550287991267e-01  4.4418980916324197e-01  4.5123354869773630e-01  4.5842188526907324e-01  4.6577291352144679e-01  4.7330025514964680e-01  4.8101383493649141e-01  4.8891975304699359e-01  4.9701990188158574e-01  5.0531174807873058e-01  5.1378851309645290e-01  5.2243982140941803e-01  5.3125274172058712e-01  5.4021303694827583e-01  5.4930638709320834e-01  5.5851934024832639e-01  5.6783979847813637e-01  5.7725677056082225e-01  5.8675920560485917e-01  5.9633290115534798e-01  6.0595553818540715e-01  6.1558532240311625e-01  6.2515025891482634e-01  6.3451461697928213e-01  6.4348947806417922e-01  6.5171944249216751e-01  6.5893644411960506e-01  6.6426532665241000e-01  6.6818287709313184e-01  6.6737276669024415e-01  6.6851633609129013e-01  6.4236174716246652e-01  6.7562572426798895e-01  7.6101570089519177e-01  3.6701345259750479e-01  1.5854637478806182e+00  3.0467671034135463e-01  5.2172388464645836e-01  4.8873647905745327e-01  5.0506104216701464e-01  5.1441515941348237e-01  5.2050461236984358e-01  5.2496086439092993e-01  5.2762711375723226e-01  5.2895426859797146e-01  5.2931252564502995e-01  5.2902918017082412e-01  5.2835082013732326e-01  5.2744555175929730e-01  5.2641822699920104e-01  5.2532958595191970e-01  5.2421283290194987e-01  5.2308518684944616e-01  5.2195478660068706e-01  5.2082424802989469e-01  5.1969225388303253e-01  5.1855423316319971e-01  5.1740281477851280e-01  5.1622843046971156e-01  5.1502020419451500e-01  5.1376708476176502e-01  5.1245905425589366e-01  5.1108818607665507e-01  5.0964934054510869e-01  5.0814034242312911e-01  5.0656155873591246e-01  5.0491474180401186e-01  5.0320095170991963e-01  5.0141672325212983e-01  4.9954797613442226e-01  4.9755849505784938e-01  4.9537617714820076e-01  4.9286489763108932e-01  4.8981922891900687e-01  4.8590017870381985e-01  4.8077111592019678e-01  4.7377312665864119e-01  4.6498552207128613e-01  4.5284055667551498e-01  4.4016676192250276e-01  4.1413782962112383e-01  4.2507257209255878e-01  4.8282751246162575e-01  1.5761739892330484e-01  1.6516876725297853e+00  1.6018261262630129e-01  5.4846144933242602e-01  4.3094929472876237e-01  4.7675331749826022e-01  4.8028906995849552e-01  4.8769398762841937e-01  4.9311788898036768e-01  4.9693391971672701e-01  4.9950977888332898e-01  5.0115260673404971e-01  5.0217528225971098e-01  5.0281671386513782e-01  5.0324436076869639e-01  5.0356346175274636e-01  5.0383504009846447e-01  5.0409211677972221e-01  5.0435164552368283e-01  5.0462194278576933e-01  5.0490672110324131e-01  5.0520701704612070e-01  5.0552201375819394e-01  5.0584939970310483e-01  5.0618562049935556e-01  5.0652619353585082e-01  5.0686613605186837e-01  5.0720047667338564e-01  5.0752476313318473e-01  5.0783544973467420e-01  5.0813003574658577e-01  5.0840683153928845e-01  5.0866412008417550e-01  5.0889840150918575e-01  5.0910074370820446e-01  5.0925067406078472e-01  5.0930442998844871e-01  5.0918130001911144e-01  5.0873620208003123e-01  5.0775873706011188e-01  5.0591448238495218e-01  5.0290190238089982e-01  4.9813390810080022e-01  4.9188638066127438e-01  4.8279272695454456e-01  4.7421375692319179e-01  4.5444148659501010e-01  4.7867712563577020e-01  5.3955678182458999e-01  2.2733045942015281e-01  1.6605459064219994e+00  1.5363542880287712e-01  5.7560048742348136e-01  4.1716014604531282e-01  4.8786328669051343e-01  4.7968369183713244e-01  4.8960237737199552e-01  4.9431510433531550e-01  4.9804446618564169e-01  5.0045162437074331e-01  5.0191440463772752e-01  5.0273655967541586e-01  5.0315942002834169e-01  5.0335470092308887e-01  5.0343085592590964e-01  5.0345093668034202e-01  5.0344900027747708e-01  5.0344261323176043e-01  5.0344065488276857e-01  5.0344754447073281e-01  5.0346517419269832e-01  5.0349360856306724e-01  5.0353125873023141e-01  5.0357496871274787e-01  5.0362026040331809e-01  5.0366183556418276e-01  5.0369429369180130e-01  5.0371290148661807e-01  5.0371418746452257e-01  5.0369615022737879e-01  5.0365794280724685e-01  5.0359884896048934e-01  5.0351630931790414e-01  5.0340209391530355e-01  5.0323612268162710e-01  5.0297492874374106e-01  5.0253870482546381e-01  5.0178580533524964e-01  5.0051497223113750e-01  4.9841323055358605e-01  4.9521795028394139e-01  4.9041262250860901e-01  4.8435672822641762e-01  4.7582708373374433e-01  4.6812055818825238e-01  4.4926679002183040e-01  4.7348069534546200e-01  5.3365255745129103e-01  2.1540646360208965e-01  1.6654353947217762e+00  1.5435214373187142e-01  5.7776717327118066e-01  4.1185678161750378e-01  4.9066183082608494e-01  4.7470184912573665e-01  4.8796288219901340e-01  4.9145180472230376e-01  4.9540193036358110e-01  4.9776812629355732e-01  4.9926894514438930e-01  5.0012933010028926e-01  5.0059272347257655e-01  5.0082711677553193e-01  5.0094009585754018e-01  5.0099434520491815e-01  5.0102398708738594e-01  5.0104702186465677e-01  5.0107314539353298e-01  5.0110793367990358e-01  5.0115462450201875e-01  5.0121457298245276e-01  5.0128712509728546e-01  5.0136944658243099e-01  5.0145666600857153e-01  5.0154251359954183e-01  5.0162040074933967e-01  5.0168463431378318e-01  5.0173133471789377e-01  5.0175871438716158e-01  5.0176659590484918e-01  5.0175511034250342e-01  5.0172247103649137e-01  5.0166101159076903e-01  5.0155104158033981e-01  5.0134958477402991e-01  5.0097808022129420e-01  5.0029814615304824e-01  4.9911594697046696e-01  4.9713285793140760e-01  4.9411082138131091e-01  4.8956690628581312e-01  4.8390404384167823e-01  4.7591353553069987e-01  4.6892394855013980e-01  4.5087073515854281e-01  4.7590337154713763e-01  5.3717042458776232e-01  2.1813941362685307e-01  1.6692116287166483e+00  1.5625935331203208e-01  5.7951690477677553e-01  4.1245342759411646e-01  4.9186082560029060e-01  4.7359119698562169e-01  4.8856862269797907e-01  4.9082027477094725e-01  4.9505210672835792e-01  4.9724530781467036e-01  4.9872180570105057e-01  4.9953688949826813e-01  4.9996240450823526e-01  5.0015841140524109e-01  5.0023238932137948e-01  5.0024677798941186e-01  5.0023627028167139e-01  5.0021999131488271e-01  5.0020933228576003e-01  5.0021196334959250e-01  5.0023329868440880e-01  5.0027644886064393e-01  5.0034149292230412e-01  5.0042484340079296e-01  5.0051929519090144e-01  5.0061513190831874e-01  5.0070217350122992e-01  5.0077206524526652e-01  5.0081986014794033e-01  5.0084430013924353e-01  5.0084682374948264e-01  5.0082959304712471e-01  5.0079273319839546e-01  5.0073010974193288e-01  5.0062320606931054e-01  5.0043015384455536e-01  5.0007400999590912e-01  4.9941947175264034e-01  4.9827858962766891e-01  4.9636291229696150e-01  4.9345008781952449e-01  4.8907663650824357e-01  4.8366606692124164e-01  4.7601659604971058e-01  4.6944823489397963e-01  4.5184287518532079e-01  4.7728769656580361e-01  5.3953965171137652e-01  2.1976671618678192e-01  1.6722682873185362e+00  1.5766470302250396e-01  5.8047126962922269e-01  4.1286314088701281e-01  4.9210668445471401e-01  4.7346791150983414e-01  4.8872548753371475e-01  4.9037397690178497e-01  4.9485448120166192e-01  4.9689029889404879e-01  4.9838481868116313e-01  4.9917404226325807e-01  4.9958698926322825e-01  4.9976672240781744e-01  4.9982234458894337e-01  4.9981569866431153e-01  4.9978227147706200e-01  4.9974283570611394e-01  4.9971135478089440e-01  4.9969881008259115e-01  4.9971418598237627e-01  4.9976349238899981e-01  4.9984789181969985e-01  4.9996214392971289e-01  5.0009441940713550e-01  5.0022839809750519e-01  5.0034740110030052e-01  5.0043884511449188e-01  5.0049684401086814e-01  5.0052202459394624e-01  5.0051920745522438e-01  5.0049410052103904e-01  5.0044970128046029e-01  5.0038180621499295e-01  5.0027303158018821e-01  5.0008223543431463e-01  4.9973333684016352e-01  4.9909275446678203e-01  4.9797598726629744e-01  4.9610067478079900e-01  4.9325382498131248e-01  4.8898348302147659e-01  4.8372585929706963e-01  4.7628442402521115e-01  4.6998574479244198e-01  4.5268301700408736e-01  4.7846014687593691e-01  5.4153936665732116e-01  2.2083680827390917e-01  1.6747302360468062e+00  1.5872020446756557e-01  5.8124847099671872e-01  4.1334333990855016e-01  4.9248153841546810e-01  4.7366983570090238e-01  4.8884506389407434e-01  4.9033193387526941e-01  4.9489826673229448e-01  4.9682387825370683e-01  4.9833859002700615e-01  4.9909946487446827e-01  4.9950031122860994e-01  4.9965997525636596e-01  4.9969218864170045e-01  4.9965734514951016e-01  4.9959205860979300e-01  4.9951934065442177e-01  4.9945693816919368e-01  4.9942124723575759e-01  4.9942741616590264e-01  4.9948672611906664e-01  4.9960252597603921e-01  4.9976667313654072e-01  4.9995859340293919e-01  5.0014953945211393e-01  5.0031142878201740e-01  5.0042572251205297e-01  5.0048720178525741e-01  5.0050175125219643e-01  5.0048090810271051e-01  5.0043618635111542e-01  5.0037446981762401e-01  5.0029355977812440e-01  5.0017673723706757e-01  4.9998285397572556e-01  4.9963577681970978e-01  4.9900246386916186e-01  4.9790016893721639e-01  4.9605022020577588e-01  4.9324571091921410e-01  4.8904283132746540e-01  4.8388744667942646e-01  4.7659028732477682e-01  4.7048722283211003e-01  4.5341475700467654e-01  4.7947064734480460e-01  5.4332390957528753e-01  2.2190992368876042e-01  1.6766875893310269e+00  1.5945504811791589e-01  5.8183307935005002e-01  4.1368977642591459e-01  4.9274781900821923e-01  4.7380291868884927e-01  4.8892883510802543e-01  4.9037293238438934e-01  4.9493784442906702e-01  4.9682012488985550e-01  4.9835047565898805e-01  4.9909321321678257e-01  4.9948825238918115e-01  4.9963083186685703e-01  4.9964065440130645e-01  4.9957503494633060e-01  4.9947197792891740e-01  4.9935674921302908e-01  4.9925254056946500e-01  4.9918450643885404e-01  4.9917823841392184e-01  4.9925498584576550e-01  4.9942301827390539e-01  4.9966945209381414e-01  4.9995686838831066e-01  5.0023264039379456e-01  5.0044902374723255e-01  5.0058097393538070e-01  5.0062960354686836e-01  5.0061337350148505e-01  5.0055600329686500e-01  5.0047737696758388e-01  5.0038852974227177e-01  5.0028831627846759e-01  5.0015936170357445e-01  4.9995926252120759e-01  4.9961075470160310e-01  4.9898032934617675e-01  4.9788583309322049e-01  4.9605082692442504e-01  4.9327253759051065e-01  4.8911347625649898e-01  4.8402728488945729e-01  4.7683300480810875e-01  4.7087639318059682e-01  4.5398379119204724e-01  4.8026801471207103e-01  5.4478552993156837e-01  2.2276720488127183e-01  1.6782391393654197e+00  1.5995434451040735e-01  5.8228084768004462e-01  4.1392590233774390e-01  4.9294119636269923e-01  4.7390201240909524e-01  4.8900832461476107e-01  4.9042098459296180e-01  4.9497681212040329e-01  4.9685150202110134e-01  4.9838944177926386e-01  4.9912466261003097e-01  4.9951687597972549e-01  4.9964468957257147e-01  4.9963172910568016e-01  4.9953053434309375e-01  4.9938016142387270e-01  4.9920658223905606e-01  4.9904133921597077e-01  4.9892214942961433e-01  4.9889204929099917e-01  4.9899210130676280e-01  4.9924175955115818e-01  4.9962106309230481e-01  5.0005857841948398e-01  5.0045396614669457e-01  5.0072679282578436e-01  5.0085120797327332e-01  5.0085024151948898e-01  5.0076890798553242e-01  5.0065024168533001e-01  5.0052346898300515e-01  5.0040151462374727e-01  5.0028119465532239e-01  5.0014183671598078e-01  4.9993795496935017e-01  4.9959002246765449e-01  4.9896334153831917e-01  4.9787571193275532e-01  4.9605216643623018e-01  4.9329294415099878e-01  4.8916574316018707e-01  4.8413049270391190e-01  4.7701472220274932e-01  4.7117296982641677e-01  4.5442560520876302e-01  4.8090070279802893e-01  5.4599237498598630e-01  2.2348600941126501e-01  1.6794676240543036e+00  1.6028683265699936e-01  5.8263113932009514e-01  4.1408494478796753e-01  4.9308846133640294e-01  4.7397590683490909e-01  4.8907479926963610e-01  4.9046444739420797e-01  4.9502249091197387e-01  4.9690040149247228e-01  4.9844554846181610e-01  4.9918351057575799e-01  4.9957733306296809e-01  4.9969610193912328e-01  4.9966319108724289e-01  4.9952495203842834e-01  4.9931915147106454e-01  4.9906863921182193e-01  4.9881772212288278e-01  4.9861584973627898e-01  4.9853814444046396e-01  4.9866389812315798e-01  4.9903838281540525e-01  4.9963529528845013e-01  5.0030870827785556e-01  5.0085932300196490e-01  5.0115846234878825e-01  5.0120691791246297e-01  5.0108647352304359e-01  5.0089059192939611e-01  5.0068578201604363e-01  5.0050515556161013e-01  5.0035560863317918e-01  5.0022546775035692e-01  5.0008668934142420e-01  4.9988865306958385e-01  4.9954880254833361e-01  4.9893111406678592e-01  4.9785334114021601e-01  4.9604185053944899e-01  4.9329938145292918e-01  4.8919810949221393e-01  4.8420306212021774e-01  4.7714985956906125e-01  4.7140034505999934e-01  4.5477090536598080e-01  4.8140394054607477e-01  5.4698328255741047e-01  2.2408208710820715e-01  1.6804355377132327e+00  1.6050406393435207e-01  5.8291075626095845e-01  4.1419353117406704e-01  4.9320647950538582e-01  4.7403397815875947e-01  4.8913496918817750e-01  4.9051063584694732e-01  4.9507810661337781e-01  4.9696417644896712e-01  4.9852265320555883e-01  4.9927333892754389e-01  4.9967785687543853e-01  4.9979961951000962e-01  4.9975807807518446e-01  4.9959188244481301e-01  4.9933203044344393e-01  4.9899288656217572e-01  4.9863223709129861e-01  4.9829640103599554e-01  4.9812837786936937e-01  4.9826393994659118e-01  4.9882286929281588e-01  4.9978798934629570e-01  5.0083098179194951e-01  5.0154531574762951e-01  5.0175271732026827e-01  5.0157335284214799e-01  5.0122120678079485e-01  5.0085785413312656e-01  5.0056090112512197e-01  5.0034610500358845e-01  5.0019795217862295e-01  5.0008654525189700e-01  4.9997220823421246e-01  4.9979816275743882e-01  4.9947934336084282e-01  4.9887939862329733e-01  4.9781693545730887e-01  4.9602019253808238e-01  4.9329445242859454e-01  4.8921600301528045e-01  4.8425411785160322e-01  4.7725182084161250e-01  4.7157689451476142e-01  4.5504260529449692e-01  4.8180480789629210e-01  5.4779096630984092e-01  2.2457160302863408e-01  1.6811860675212511e+00  1.6064143104960327e-01  5.8313447677397556e-01  4.1426844664024892e-01  4.9330405379661146e-01  4.7408265801682992e-01  4.8919268696788332e-01  4.9056086886956507e-01  4.9514232920880413e-01  4.9704202426513239e-01  4.9862183881989297e-01  4.9939618272078640e-01  4.9982616219304699e-01  4.9997145952741584e-01  4.9994649981313838e-01  4.9978105699273989e-01  4.9949277476304627e-01  4.9908147434547240e-01  4.9860013009784604e-01  4.9806059623489507e-01  4.9773461548046810e-01  4.9779142567115409e-01  4.9862729453608146e-01  5.0024785851932352e-01  5.0185439585367864e-01  5.0263521506786479e-01  5.0243361369805384e-01  5.0174490848474551e-01  5.0102425279535856e-01  5.0048096459272973e-01  5.0014229960799583e-01  4.9996306771084947e-01  4.9988123363075243e-01  4.9984022447996185e-01  4.9978782384259540e-01  4.9966338358843426e-01  4.9938233340868760e-01  4.9881064822773058e-01  4.9776973556241644e-01  4.9599088517319800e-01  4.9328241637679893e-01  4.8922460624676462e-01  4.8429041816174007e-01  4.7732939965597393e-01  4.7171415226325336e-01  4.5525510510849426e-01  4.8212067266018871e-01  5.4843647698043974e-01  2.2496457750853055e-01  1.6817480869004182e+00  1.6072283677429772e-01  5.8330887904421524e-01  4.1431864830484738e-01  4.9338331620442127e-01  4.7412289643433791e-01  4.8924587421754545e-01  4.9061115876288625e-01  4.9520958205137372e-01  4.9712740472037759e-01  4.9873521786371511e-01  4.9954389358321866e-01  5.0001658505639957e-01  5.0021211834044366e-01  5.0024294884444231e-01  5.0013294643683204e-01  4.9988653789586063e-01  4.9948473945805222e-01  4.9893639776907989e-01  4.9819269187312820e-01  4.9765134642402353e-01  4.9736266842488752e-01  4.9857794163536401e-01  5.0127320513056939e-01  5.0377744235404820e-01  5.0429442532343516e-01  5.0291457887742641e-01  5.0129032986662680e-01  5.0014567830977219e-01  4.9953829375772341e-01  4.9931430137867938e-01  4.9930624602183671e-01  4.9939160890076045e-01  4.9948928055788244e-01  4.9954246126400170e-01  4.9949433227575885e-01  4.9926678698133437e-01  4.9873224779842257e-01  4.9771754126835660e-01  4.9595845926612991e-01  4.9326699826165765e-01  4.8922732477994119e-01  4.8431568252625029e-01  4.7738704805381055e-01  4.7181793307126441e-01  4.5541598969238906e-01  4.8236114774811395e-01  5.4893116756608040e-01  2.2526565429519943e-01  1.6821407935154349e+00  1.6076467267800265e-01  5.8343626033695639e-01  4.1434893271513273e-01  4.9344339507108037e-01  4.7415313576883827e-01  4.8928999364018755e-01  4.9065501226844882e-01  4.9527049406843704e-01  4.9720736446044544e-01  4.9884505122331901e-01  4.9969313059615733e-01  5.0021945871090445e-01  5.0048637016954922e-01  5.0061144376445632e-01  5.0062328398163214e-01  5.0052752096362174e-01  5.0029579383145595e-01  4.9987446645898098e-01  4.9912881368299955e-01  4.9826233815175108e-01  4.9680173045619819e-01  4.9808925123357117e-01  5.0315553567263915e-01  5.0751850786443931e-01  5.0689529910280973e-01  5.0288766559010034e-01  4.9960814312303381e-01  4.9826492031238911e-01  4.9794269731349439e-01  4.9810159981783897e-01  4.9843940460054875e-01  4.9879451274221287e-01  4.9908775552895690e-01  4.9927647287341836e-01  4.9931950574342937e-01  4.9915218618856283e-01  4.9865726107248592e-01  4.9766902341155361e-01  4.9592866203287039e-01  4.9325210386056001e-01  4.8922700287654669e-01  4.8433240052163318e-01  4.7742731994870730e-01  4.7189138325292440e-01  4.5552945850757676e-01  4.8253170638036536e-01  5.4928090814521924e-01  2.2547711920178862e-01  1.6823766368344246e+00  1.6077793742330437e-01  5.8351693741310418e-01  4.1436192922955339e-01  4.9348238219627505e-01  4.7417099986682931e-01  4.8931983012112096e-01  4.9068494594165757e-01  4.9531367669908516e-01  4.9726510725184964e-01  4.9892637951087032e-01  4.9980687435956717e-01  5.0037994978435596e-01  5.0071394989842133e-01  5.0093696473712201e-01  5.0109368806818899e-01  5.0121446235905764e-01  5.0130732814080403e-01  5.0136289520400745e-01  5.0134249862185054e-01  5.0126809513374426e-01  4.9989463516592314e-01  4.9987318779181794e-01  5.0712161701527603e-01  5.1757528022822552e-01  5.1518935720508929e-01  4.9975679538591933e-01  4.9698984559351506e-01  4.9563950598434697e-01  4.9605646756196409e-01  4.9683729027806783e-01  4.9761503171762395e-01  4.9826375345807217e-01  4.9874933643581676e-01  4.9906188142692004e-01  4.9918368754792269e-01  4.9906607498260774e-01  4.9860253900942886e-01  4.9763447838125113e-01  4.9590779761004428e-01  4.9324165124768921e-01  4.8922617709805749e-01  4.8434246063512587e-01  4.7745186028963488e-01  4.7193631353938464e-01  4.5559789212832563e-01  4.8263541509059693e-01  5.4948841667628323e-01  2.2559988873393957e-01  1.6824627813621598e+00  1.6076907333173157e-01  5.8355046925496867e-01  4.1435906137833134e-01  4.9349851125192257e-01  4.7417453124898323e-01  4.8933122341327606e-01  4.9069492576482893e-01  4.9532961912090351e-01  4.9728602633082192e-01  4.9895629806141079e-01  4.9984886190274025e-01  5.0043989574236880e-01  5.0080040734492459e-01  5.0106397537364677e-01  5.0128476978535885e-01  5.0151145008576181e-01  5.0179146005817155e-01  5.0220610825392853e-01  5.0292577520462622e-01  5.0425333621263901e-01  5.0538984942230913e-01  5.0319105983702728e-01  5.2813296983402658e-01  5.2444501493013207e-01  5.2620727932180356e-01  5.2033060778779350e-01  4.9098453352310911e-01  4.9391040773001782e-01  4.9495497682818407e-01  4.9620148592127122e-01  4.9723527580491256e-01  4.9803436080339825e-01  4.9860998570553527e-01  4.9897711503472625e-01  4.9913203593155653e-01  4.9903445994934043e-01  4.9858309875221429e-01  4.9762262079898789e-01  4.9590096135682121e-01  4.9323866845717029e-01  4.8922671354541825e-01  4.8434714790372990e-01  4.7746168740500056e-01  4.7195373043635702e-01  4.5562257549040658e