<?xml version="1.0"?>
<VTKFile type="UnstructuredGrid"  version="0.1"  >
<UnstructuredGrid>
<Piece  NumberOfPoints="1617" NumberOfCells="3072">
<Points>
<DataArray  type="Float64"  NumberOfComponents="3"  format="ascii">0 0 0  0.03125 0 0  0.0625 0 0  0.09375 0 0  0.125 0 0  0.15625 0 0  0.1875 0 0  0.21875 0 0  0.25 0 0  0.28125 0 0  0.3125 0 0  0.34375 0 0  0.375 0 0  0.40625 0 0  0.4375 0 0  0.46875 0 0  0.5 0 0  0.53125 0 0  0.5625 0 0  0.59375 0 0  0.625 0 0  0.65625 0 0  0.6875 0 0  0.71875 0 0  0.75 0 0  0.78125 0 0  0.8125 0 0  0.84375 0 0  0.875 0 0  0.90625 0 0  0.9375 0 0  0.96875 0 0  1 0 0  1.03125 0 0  1.0625 0 0  1.09375 0 0  1.125 0 0  1.15625 0 0  1.1875 0 0  1.21875 0 0  1.25 0 0  1.28125 0 0  1.3125 0 0  1.34375 0 0  1.375 0 0  1.40625 0 0  1.4375 0 0  1.46875 0 0  1.5 0 0  0 0.03125 0  0.03125 0.03125 0  0.0625 0.03125 0  0.09375 0.03125 0  0.125 0.03125 0  0.15625 0.03125 0  0.1875 0.03125 0  0.21875 0.03125 0  0.25 0.03125 0  0.28125 0.03125 0  0.3125 0.03125 0  0.34375 0.03125 0  0.375 0.03125 0  0.40625 0.03125 0  0.4375 0.03125 0  0.46875 0.03125 0  0.5 0.03125 0  0.53125 0.03125 0  0.5625 0.03125 0  0.59375 0.03125 0  0.625 0.03125 0  0.65625 0.03125 0  0.6875 0.03125 0  0.71875 0.03125 0  0.75 0.03125 0  0.78125 0.03125 0  0.8125 0.03125 0  0.84375 0.03125 0  0.875 0.03125 0  0.90625 0.03125 0  0.9375 0.03125 0  0.96875 0.03125 0  1 0.03125 0  1.03125 0.03125 0  1.0625 0.03125 0  1.09375 0.03125 0  1.125 0.03125 0  1.15625 0.03125 0  1.1875 0.03125 0  1.21875 0.03125 0  1.25 0.03125 0  1.28125 0.03125 0  1.3125 0.03125 0  1.34375 0.03125 0  1.375 0.03125 0  1.40625 0.03125 0  1.4375 0.03125 0  1.46875 0.03125 0  1.5 0.03125 0  0 0.0625 0  0.03125 0.0625 0  0.0625 0.0625 0  0.09375 0.0625 0  0.125 0.0625 0  0.15625 0.0625 0  0.1875 0.0625 0  0.21875 0.0625 0  0.25 0.0625 0  0.28125 0.0625 0  0.3125 0.0625 0  0.34375 0.0625 0  0.375 0.0625 0  0.40625 0.0625 0  0.4375 0.0625 0  0.46875 0.0625 0  0.5 0.0625 0  0.53125 0.0625 0  0.5625 0.0625 0  0.59375 0.0625 0  0.625 0.0625 0  0.65625 0.0625 0  0.6875 0.0625 0  0.71875 0.0625 0  0.75 0.0625 0  0.78125 0.0625 0  0.8125 0.0625 0  0.84375 0.0625 0  0.875 0.0625 0  0.90625 0.0625 0  0.9375 0.0625 0  0.96875 0.0625 0  1 0.0625 0  1.03125 0.0625 0  1.0625 0.0625 0  1.09375 0.0625 0  1.125 0.0625 0  1.15625 0.0625 0  1.1875 0.0625 0  1.21875 0.0625 0  1.25 0.0625 0  1.28125 0.0625 0  1.3125 0.0625 0  1.34375 0.0625 0  1.375 0.0625 0  1.40625 0.0625 0  1.4375 0.0625 0  1.46875 0.0625 0  1.5 0.0625 0  0 0.09375 0  0.03125 0.09375 0  0.0625 0.09375 0  0.09375 0.09375 0  0.125 0.09375 0  0.15625 0.09375 0  0.1875 0.09375 0  0.21875 0.09375 0  0.25 0.09375 0  0.28125 0.09375 0  0.3125 0.09375 0  0.34375 0.09375 0  0.375 0.09375 0  0.40625 0.09375 0  0.4375 0.09375 0  0.46875 0.09375 0  0.5 0.09375 0  0.53125 0.09375 0  0.5625 0.09375 0  0.59375 0.09375 0  0.625 0.09375 0  0.65625 0.09375 0  0.6875 0.09375 0  0.71875 0.09375 0  0.75 0.09375 0  0.78125 0.09375 0  0.8125 0.09375 0  0.84375 0.09375 0  0.875 0.09375 0  0.90625 0.09375 0  0.9375 0.09375 0  0.96875 0.09375 0  1 0.09375 0  1.03125 0.09375 0  1.0625 0.09375 0  1.09375 0.09375 0  1.125 0.09375 0  1.15625 0.09375 0  1.1875 0.09375 0  1.21875 0.09375 0  1.25 0.09375 0  1.28125 0.09375 0  1.3125 0.09375 0  1.34375 0.09375 0  1.375 0.09375 0  1.40625 0.09375 0  1.4375 0.09375 0  1.46875 0.09375 0  1.5 0.09375 0  0 0.125 0  0.03125 0.125 0  0.0625 0.125 0  0.09375 0.125 0  0.125 0.125 0  0.15625 0.125 0  0.1875 0.125 0  0.21875 0.125 0  0.25 0.125 0  0.28125 0.125 0  0.3125 0.125 0  0.34375 0.125 0  0.375 0.125 0  0.40625 0.125 0  0.4375 0.125 0  0.46875 0.125 0  0.5 0.125 0  0.53125 0.125 0  0.5625 0.125 0  0.59375 0.125 0  0.625 0.125 0  0.65625 0.125 0  0.6875 0.125 0  0.71875 0.125 0  0.75 0.125 0  0.78125 0.125 0  0.8125 0.125 0  0.84375 0.125 0  0.875 0.125 0  0.90625 0.125 0  0.9375 0.125 0  0.96875 0.125 0  1 0.125 0  1.03125 0.125 0  1.0625 0.125 0  1.09375 0.125 0  1.125 0.125 0  1.15625 0.125 0  1.1875 0.125 0  1.21875 0.125 0  1.25 0.125 0  1.28125 0.125 0  1.3125 0.125 0  1.34375 0.125 0  1.375 0.125 0  1.40625 0.125 0  1.4375 0.125 0  1.46875 0.125 0  1.5 0.125 0  0 0.15625 0  0.03125 0.15625 0  0.0625 0.15625 0  0.09375 0.15625 0  0.125 0.15625 0  0.15625 0.15625 0  0.1875 0.15625 0  0.21875 0.15625 0  0.25 0.15625 0  0.28125 0.15625 0  0.3125 0.15625 0  0.34375 0.15625 0  0.375 0.15625 0  0.40625 0.15625 0  0.4375 0.15625 0  0.46875 0.15625 0  0.5 0.15625 0  0.53125 0.15625 0  0.5625 0.15625 0  0.59375 0.15625 0  0.625 0.15625 0  0.65625 0.15625 0  0.6875 0.15625 0  0.71875 0.15625 0  0.75 0.15625 0  0.78125 0.15625 0  0.8125 0.15625 0  0.84375 0.15625 0  0.875 0.15625 0  0.90625 0.15625 0  0.9375 0.15625 0  0.96875 0.15625 0  1 0.15625 0  1.03125 0.15625 0  1.0625 0.15625 0  1.09375 0.15625 0  1.125 0.15625 0  1.15625 0.15625 0  1.1875 0.15625 0  1.21875 0.15625 0  1.25 0.15625 0  1.28125 0.15625 0  1.3125 0.15625 0  1.34375 0.15625 0  1.375 0.15625 0  1.40625 0.15625 0  1.4375 0.15625 0  1.46875 0.15625 0  1.5 0.15625 0  0 0.1875 0  0.03125 0.1875 0  0.0625 0.1875 0  0.09375 0.1875 0  0.125 0.1875 0  0.15625 0.1875 0  0.1875 0.1875 0  0.21875 0.1875 0  0.25 0.1875 0  0.28125 0.1875 0  0.3125 0.1875 0  0.34375 0.1875 0  0.375 0.1875 0  0.40625 0.1875 0  0.4375 0.1875 0  0.46875 0.1875 0  0.5 0.1875 0  0.53125 0.1875 0  0.5625 0.1875 0  0.59375 0.1875 0  0.625 0.1875 0  0.65625 0.1875 0  0.6875 0.1875 0  0.71875 0.1875 0  0.75 0.1875 0  0.78125 0.1875 0  0.8125 0.1875 0  0.84375 0.1875 0  0.875 0.1875 0  0.90625 0.1875 0  0.9375 0.1875 0  0.96875 0.1875 0  1 0.1875 0  1.03125 0.1875 0  1.0625 0.1875 0  1.09375 0.1875 0  1.125 0.1875 0  1.15625 0.1875 0  1.1875 0.1875 0  1.21875 0.1875 0  1.25 0.1875 0  1.28125 0.1875 0  1.3125 0.1875 0  1.34375 0.1875 0  1.375 0.1875 0  1.40625 0.1875 0  1.4375 0.1875 0  1.46875 0.1875 0  1.5 0.1875 0  0 0.21875 0  0.03125 0.21875 0  0.0625 0.21875 0  0.09375 0.21875 0  0.125 0.21875 0  0.15625 0.21875 0  0.1875 0.21875 0  0.21875 0.21875 0  0.25 0.21875 0  0.28125 0.21875 0  0.3125 0.21875 0  0.34375 0.21875 0  0.375 0.21875 0  0.40625 0.21875 0  0.4375 0.21875 0  0.46875 0.21875 0  0.5 0.21875 0  0.53125 0.21875 0  0.5625 0.21875 0  0.59375 0.21875 0  0.625 0.21875 0  0.65625 0.21875 0  0.6875 0.21875 0  0.71875 0.21875 0  0.75 0.21875 0  0.78125 0.21875 0  0.8125 0.21875 0  0.84375 0.21875 0  0.875 0.21875 0  0.90625 0.21875 0  0.9375 0.21875 0  0.96875 0.21875 0  1 0.21875 0  1.03125 0.21875 0  1.0625 0.21875 0  1.09375 0.21875 0  1.125 0.21875 0  1.15625 0.21875 0  1.1875 0.21875 0  1.21875 0.21875 0  1.25 0.21875 0  1.28125 0.21875 0  1.3125 0.21875 0  1.34375 0.21875 0  1.375 0.21875 0  1.40625 0.21875 0  1.4375 0.21875 0  1.46875 0.21875 0  1.5 0.21875 0  0 0.25 0  0.03125 0.25 0  0.0625 0.25 0  0.09375 0.25 0  0.125 0.25 0  0.15625 0.25 0  0.1875 0.25 0  0.21875 0.25 0  0.25 0.25 0  0.28125 0.25 0  0.3125 0.25 0  0.34375 0.25 0  0.375 0.25 0  0.40625 0.25 0  0.4375 0.25 0  0.46875 0.25 0  0.5 0.25 0  0.53125 0.25 0  0.5625 0.25 0  0.59375 0.25 0  0.625 0.25 0  0.65625 0.25 0  0.6875 0.25 0  0.71875 0.25 0  0.75 0.25 0  0.78125 0.25 0  0.8125 0.25 0  0.84375 0.25 0  0.875 0.25 0  0.90625 0.25 0  0.9375 0.25 0  0.96875 0.25 0  1 0.25 0  1.03125 0.25 0  1.0625 0.25 0  1.09375 0.25 0  1.125 0.25 0  1.15625 0.25 0  1.1875 0.25 0  1.21875 0.25 0  1.25 0.25 0  1.28125 0.25 0  1.3125 0.25 0  1.34375 0.25 0  1.375 0.25 0  1.40625 0.25 0  1.4375 0.25 0  1.46875 0.25 0  1.5 0.25 0  0 0.28125 0  0.03125 0.28125 0  0.0625 0.28125 0  0.09375 0.28125 0  0.125 0.28125 0  0.15625 0.28125 0  0.1875 0.28125 0  0.21875 0.28125 0  0.25 0.28125 0  0.28125 0.28125 0  0.3125 0.28125 0  0.34375 0.28125 0  0.375 0.28125 0  0.40625 0.28125 0  0.4375 0.28125 0  0.46875 0.28125 0  0.5 0.28125 0  0.53125 0.28125 0  0.5625 0.28125 0  0.59375 0.28125 0  0.625 0.28125 0  0.65625 0.28125 0  0.6875 0.28125 0  0.71875 0.28125 0  0.75 0.28125 0  0.78125 0.28125 0  0.8125 0.28125 0  0.84375 0.28125 0  0.875 0.28125 0  0.90625 0.28125 0  0.9375 0.28125 0  0.96875 0.28125 0  1 0.28125 0  1.03125 0.28125 0  1.0625 0.28125 0  1.09375 0.28125 0  1.125 0.28125 0  1.15625 0.28125 0  1.1875 0.28125 0  1.21875 0.28125 0  1.25 0.28125 0  1.28125 0.28125 0  1.3125 0.28125 0  1.34375 0.28125 0  1.375 0.28125 0  1.40625 0.28125 0  1.4375 0.28125 0  1.46875 0.28125 0  1.5 0.28125 0  0 0.3125 0  0.03125 0.3125 0  0.0625 0.3125 0  0.09375 0.3125 0  0.125 0.3125 0  0.15625 0.3125 0  0.1875 0.3125 0  0.21875 0.3125 0  0.25 0.3125 0  0.28125 0.3125 0  0.3125 0.3125 0  0.34375 0.3125 0  0.375 0.3125 0  0.40625 0.3125 0  0.4375 0.3125 0  0.46875 0.3125 0  0.5 0.3125 0  0.53125 0.3125 0  0.5625 0.3125 0  0.59375 0.3125 0  0.625 0.3125 0  0.65625 0.3125 0  0.6875 0.3125 0  0.71875 0.3125 0  0.75 0.3125 0  0.78125 0.3125 0  0.8125 0.3125 0  0.84375 0.3125 0  0.875 0.3125 0  0.90625 0.3125 0  0.9375 0.3125 0  0.96875 0.3125 0  1 0.3125 0  1.03125 0.3125 0  1.0625 0.3125 0  1.09375 0.3125 0  1.125 0.3125 0  1.15625 0.3125 0  1.1875 0.3125 0  1.21875 0.3125 0  1.25 0.3125 0  1.28125 0.3125 0  1.3125 0.3125 0  1.34375 0.3125 0  1.375 0.3125 0  1.40625 0.3125 0  1.4375 0.3125 0  1.46875 0.3125 0  1.5 0.3125 0  0 0.34375 0  0.03125 0.34375 0  0.0625 0.34375 0  0.09375 0.34375 0  0.125 0.34375 0  0.15625 0.34375 0  0.1875 0.34375 0  0.21875 0.34375 0  0.25 0.34375 0  0.28125 0.34375 0  0.3125 0.34375 0  0.34375 0.34375 0  0.375 0.34375 0  0.40625 0.34375 0  0.4375 0.34375 0  0.46875 0.34375 0  0.5 0.34375 0  0.53125 0.34375 0  0.5625 0.34375 0  0.59375 0.34375 0  0.625 0.34375 0  0.65625 0.34375 0  0.6875 0.34375 0  0.71875 0.34375 0  0.75 0.34375 0  0.78125 0.34375 0  0.8125 0.34375 0  0.84375 0.34375 0  0.875 0.34375 0  0.90625 0.34375 0  0.9375 0.34375 0  0.96875 0.34375 0  1 0.34375 0  1.03125 0.34375 0  1.0625 0.34375 0  1.09375 0.34375 0  1.125 0.34375 0  1.15625 0.34375 0  1.1875 0.34375 0  1.21875 0.34375 0  1.25 0.34375 0  1.28125 0.34375 0  1.3125 0.34375 0  1.34375 0.34375 0  1.375 0.34375 0  1
[...]
<PointData  Scalars="f_65"> 
<DataArray  type="Float64"  Name="f_65"  format="ascii">8.1093049512624105e-01  7.1992301233751677e-01  6.5197421702764036e-01  6.6555933637507081e-01  6.7362437312751255e-01  6.7480093415413200e-01  6.7136482226997640e-01  6.6469212146753087e-01  6.5630398177903826e-01  6.4721084482752700e-01  6.3792884056356425e-01  6.2867813965762687e-01  6.1954003227127596e-01  6.1054014365848142e-01  6.0168394057234909e-01  5.9296966472616541e-01  5.8439252523377638e-01  5.7594590958018088e-01  5.6762167069061165e-01  5.5941018405717013e-01  5.5130043699921494e-01  5.4328028299877573e-01  5.3533693790868475e-01  5.2745773808236918e-01  5.1963110812932967e-01  5.1184760876006907e-01  5.0410087989023367e-01  4.9638828127497792e-01  4.8871108952569958e-01  4.8107418564777849e-01  4.7348533601193321e-01  4.6595410594992664e-01  4.5849088620890449e-01  4.5110542637175516e-01  4.4380699159196985e-01  4.3660089697439219e-01  4.2949469316906369e-01  4.2247906284913517e-01  4.1556883166381675e-01  4.0867716305920893e-01  4.0185083780921987e-01  3.9442356661915345e-01  3.8649552466184722e-01  3.7454991094240780e-01  3.5617242235698954e-01  3.5625365787472818e-01  2.1312910618628159e-01  3.6596267105244235e-01  3.6349269573436527e-01  6.8542194487276442e-01  5.2392870824554161e-01  3.9421800459682216e-01  4.1905094160468648e-01  4.4495041802025281e-01  4.5854262357417697e-01  4.6720679078642907e-01  4.7248111584625913e-01  4.7582596944478323e-01  4.7827537736033493e-01  4.8035217799456198e-01  4.8227336247358982e-01  4.8411774463631330e-01  4.8591229961590415e-01  4.8766747501112762e-01  4.8938914762052477e-01  4.9108210070002734e-01  4.9275081135228138e-01  4.9439941992190639e-01  4.9603142630952729e-01  4.9764929356333781e-01  4.9925406478350942e-01  5.0084509227192087e-01  5.0241996843880976e-01  5.0397471547615635e-01  5.0550423412647327e-01  5.0700294488232767e-01  5.0846549853441547e-01  5.0988741512345059e-01  5.1126552564167338e-01  5.1259816913890011e-01  5.1388510736428006e-01  5.1512731810669876e-01  5.1632645086352658e-01  5.1748472683512370e-01  5.1860333247059653e-01  5.1968389081402855e-01  5.2071976750519200e-01  5.2170539446818887e-01  5.2257536609939204e-01  5.2324014420191067e-01  5.2319806705662786e-01  5.2172914866944176e-01  5.1673902089842028e-01  5.0526042741449539e-01  5.0409745129230310e-01  4.0939750774740608e-01  5.1965426918534185e-01  6.6048505228981358e-01  7.1567904132607540e-01  5.8561897522476147e-01  4.2549637557683428e-01  4.5800309356080071e-01  4.8588926757993195e-01  4.9624516466363700e-01  5.0253294128260528e-01  5.0559464341095450e-01  5.0664232742031035e-01  5.0678507837800235e-01  5.0659326152629691e-01  5.0630012191389973e-01  5.0598603296453160e-01  5.0567485628884101e-01  5.0537283753602080e-01  5.0508146362865303e-01  5.0480104879951448e-01  5.0453155978014763e-01  5.0427272154546365e-01  5.0402396085677859e-01  5.0378432957385433e-01  5.0355245442029151e-01  5.0332653850094844e-01  5.0310443174787656e-01  5.0288377847309318e-01  5.0266223560665169e-01  5.0243773414857040e-01  5.0220873168078073e-01  5.0197439727086390e-01  5.0173467247551307e-01  5.0149022055954773e-01  5.0124223032853721e-01  5.0099228829934594e-01  5.0074192834793085e-01  5.0049300572320343e-01  5.0024585311741798e-01  5.0000257277263160e-01  4.9975485701522920e-01  4.9950310140126980e-01  4.9917051621293934e-01  4.9870281273161549e-01  4.9752971827046799e-01  4.9522124593139250e-01  4.8943189312174135e-01  4.7904744766081692e-01  4.7624922431739602e-01  3.9030657277266922e-01  5.1862527535452285e-01  5.8347556774996534e-01  7.1767254933588209e-01  5.7911221034855331e-01  4.1365738797319579e-01  4.5140427308424519e-01  4.7712827931147517e-01  4.8620459624596896e-01  4.9293326061150189e-01  4.9648565630318725e-01  4.9797719297319670e-01  4.9858308249880678e-01  4.9886447938605905e-01  4.9904158203424048e-01  4.9918695553681974e-01  4.9932116845255664e-01  4.9944941302184381e-01  4.9957310009658557e-01  4.9969285613793135e-01  4.9980914636497176e-01  4.9992231893979544e-01  5.0003251814219496e-01  5.0013956101779222e-01  5.0024282194660397e-01  5.0034115676593283e-01  5.0043290519657824e-01  5.0051601012260016e-01  5.0058827106953896e-01  5.0064770040310436e-01  5.0069288899763065e-01  5.0072326108459442e-01  5.0073912215415561e-01  5.0074151986869975e-01  5.0073193817613060e-01  5.0071207853216781e-01  5.0068340417383606e-01  5.0064749828336197e-01  5.0060445498120132e-01  5.0055590204754485e-01  5.0049406723317413e-01  5.0041823370225080e-01  5.0025707531146868e-01  4.9994860586797901e-01  4.9896498449037829e-01  4.9683983736475867e-01  4.9146453736558116e-01  4.8160626517092436e-01  4.8071625365088561e-01  3.9410026011557159e-01  5.2157568894836925e-01  5.9477790316470069e-01  7.2105875594133517e-01  5.8282884601986507e-01  4.1776170078946512e-01  4.5613410008635086e-01  4.7937298125494965e-01  4.8822621771130342e-01  4.9494752773450240e-01  4.9824148710357546e-01  4.9950604332142906e-01  4.9994290266820607e-01  5.0007647569114577e-01  5.0011500721678703e-01  5.0012735168043065e-01  5.0013349689225739e-01  5.0013884743685921e-01  5.0014511543298645e-01  5.0015315462191479e-01  5.0016360871325349e-01  5.0017700170128065e-01  5.0019364941625433e-01  5.0021348424726142e-01  5.0023587636237832e-01  5.0025947787675829e-01  5.0028216902402778e-01  5.0030119432520048e-01  5.0031354786853333e-01  5.0031656840992234e-01  5.0030856251535116e-01  5.0028919739982447e-01  5.0025948599928849e-01  5.0022142643628575e-01  5.0017743210294940e-01  5.0012991702161447e-01  5.0008074179497608e-01  5.0003159959632604e-01  4.9998242034157903e-01  4.9993465499167478e-01  4.9988007758391262e-01  4.9981862242788261e-01  4.9967826375670449e-01  4.9940472655404405e-01  4.9847021194358326e-01  4.9645647239266549e-01  4.9128835537384552e-01  4.8179129118804787e-01  4.8148273573057981e-01  3.9564692363639553e-01  5.2561448324214766e-01  5.9901685008282324e-01  7.2302786219868509e-01  5.8441255643692769e-01  4.1892619585995478e-01  4.5676151876701293e-01  4.7922612469588466e-01  4.8836850308301666e-01  4.9496251370076505e-01  4.9813030198670649e-01  4.9937320716528022e-01  4.9981458945465346e-01  4.9994907719185183e-01  4.9998596850121502e-01  4.9999481826049758e-01  4.9999679381619738e-01  4.9999822943502237e-01  5.0000149144479689e-01  5.0000795416452415e-01  5.0001879429216112e-01  5.0003516770833412e-01  5.0005803281472960e-01  5.0008782864146850e-01  5.0012412927558914e-01  5.0016524230520942e-01  5.0020799068187027e-01  5.0024786731513737e-01  5.0027973630087397e-01  5.0029903489397998e-01  5.0030305235668282e-01  5.0029164404132753e-01  5.0026703040980669e-01  5.0023291798313319e-01  5.0019339148828923e-01  5.0015215192592610e-01  5.0011184574653123e-01  5.0007449654954284e-01  5.0004002974143902e-01  5.0000967892266324e-01  4.9997492894468831e-01  4.9993537440859465e-01  4.9981926995007941e-01  4.9957208729900165e-01  4.9867359225208047e-01  4.9670297135177077e-01  4.9164603637950843e-01  4.8227371538368435e-01  4.8229616166434203e-01  3.9660415764512819e-01  5.2766493762031863e-01  6.0173550753189042e-01  7.2441363263834591e-01  5.8555214847158876e-01  4.1954435904696907e-01  4.5703659752910991e-01  4.7936662346052777e-01  4.8856929209074257e-01  4.9501009081156760e-01  4.9816647116381230e-01  4.9942885234442347e-01  4.9987515131880583e-01  5.0000609871984847e-01  5.0003721989101857e-01  5.0003829860388460e-01  5.0003162740217133e-01  5.0002427653158088e-01  5.0001913456148461e-01  5.0001805731609161e-01  5.0002293380901675e-01  5.0003590343522708e-01  5.0005896857148069e-01  5.0009355212390971e-01  5.0013983724505107e-01  5.0019579072264486e-01  5.0025658798112682e-01  5.0031466830593252e-01  5.0036100422671159e-01  5.0038762809829196e-01  5.0039034587133691e-01  5.0036994594635564e-01  5.0033129806637222e-01  5.0028124752864900e-01  5.0022651519114048e-01  5.0017249175508960e-01  5.0012258013110378e-01  5.0007887287709696e-01  5.0004094967144419e-01  5.0000953169255391e-01  4.9997551510645316e-01  4.9993808394534639e-01  4.9982497288655847e-01  4.9958202233217003e-01  4.9868967364414080e-01  4.9672911726221941e-01  4.9170984658007277e-01  4.8237404300333719e-01  4.8257258629280569e-01  3.9692313901934612e-01  5.2910051829010940e-01  6.0299427029318742e-01  7.2538707304577354e-01  5.8624907830615913e-01  4.1979740397040682e-01  4.5711479511602543e-01  4.7936540481179640e-01  4.8854454911030143e-01  4.9494305132600797e-01  4.9813580855345241e-01  4.9941096870094054e-01  4.9986020183207763e-01  4.9999258946746156e-01  5.0002349055575368e-01  5.0002214567023340e-01  5.0001176442498529e-01  4.9999987396881473e-01  4.9998961809211179e-01  4.9998334438464848e-01  4.9998408660740801e-01  4.9999546642549325e-01  5.0002131866406774e-01  5.0006526897561743e-01  5.0012924441544815e-01  5.0021128238064250e-01  5.0030418371639229e-01  5.0039482528548240e-01  5.0046649722939407e-01  5.0050471410946951e-01  5.0050334095886750e-01  5.0046626375068104e-01  5.0040414010540035e-01  5.0032948592098359e-01  5.0025294909414064e-01  5.0018181423969355e-01  5.0011981466147859e-01  5.0006846716264830e-01  5.0002640324576120e-01  4.9999336753465795e-01  4.9995940162604857e-01  4.9992308959794207e-01  4.9981173790062777e-01  4.9957103462882479e-01  4.9868225310069519e-01  4.9672485606161737e-01  4.9172734837500831e-01  4.8240144500405086e-01  4.8271950013751425e-01  3.9705355066953107e-01  5.3006894741436461e-01  6.0388561055143974e-01  7.2612507437614782e-01  5.8673644573428807e-01  4.1993115796542446e-01  4.5712852410582339e-01  4.7931444476596968e-01  4.8849386231832703e-01  4.9489526397416456e-01  4.9810818339440632e-01  4.9938568525479038e-01  4.9983870083980675e-01  4.9997333060198734e-01  5.0000385299582861e-01  5.0000017653365025e-01  4.9998578917995051e-01  4.9996846689250890e-01  4.9995080346536747e-01  4.9993602378878443e-01  4.9992846866261748e-01  4.9993346202697336e-01  4.9995833768586789e-01  5.0001130667578952e-01  5.0009856565677124e-01  5.0021985350349907e-01  5.0036503525566278e-01  5.0051001004105333e-01  5.0062149803008049e-01  5.0067210512729687e-01  5.0065471374513904e-01  5.0058261038048846e-01  5.0047887399680091e-01  5.0036563450229898e-01  5.0025850490644053e-01  5.0016591123033949e-01  5.0009052416016764e-01  5.0003195295014202e-01  4.9998689240261285e-01  4.9995349178143178e-01  4.9992062537628046e-01  4.9988616904954958e-01  4.9977701868830299e-01  4.9953883892279227e-01  4.9865328256120384e-01  4.9669858864524175e-01  4.9171597666584849e-01  4.8239359150148337e-01  4.8280280674800014e-01  3.9710314774666788e-01  5.3081535790423640e-01  6.0446241934492007e-01  7.2670457108902298e-01  5.8710499666071880e-01  4.2002267088508449e-01  4.5713811881333477e-01  4.7927861254716231e-01  4.8846920773422581e-01  4.9487211198173614e-01  4.9809228676497980e-01  4.9937228786602750e-01  4.9982863359295870e-01  4.9996333162671369e-01  4.9999202161844525e-01  4.9998503238382291e-01  4.9996510941393413e-01  4.9994016641876543e-01  4.9991049812588428e-01  4.9988186339650076e-01  4.9985729881309349e-01  4.9984505961021763e-01  4.9985912871127069e-01  4.9991584262023586e-01  5.0003241705320356e-01  5.0021547055861248e-01  5.0045261638938177e-01  5.0069506404691466e-01  5.0087029414383932e-01  5.0092596590643679e-01  5.0086261072052607e-01  5.0072016668949537e-01  5.0054663042666325e-01  5.0037796823685776e-01  5.0023346206075670e-01  5.0011940406218713e-01  5.0003427972904702e-01  4.9997357983362922e-01  4.9993077727791857e-01  4.9990181376463227e-01  4.9987420729036985e-01  4.9984513791454249e-01  4.9974123019249916e-01  4.9950823573377001e-01  4.9862816236634211e-01  4.9667834922853060e-01  4.9170898265941276e-01  4.8239086869939485e-01  4.8287265265749346e-01  3.9713893747132800e-01  5.3143400005439911e-01  6.0491993197245264e-01  7.2716242471605796e-01  5.8739070983352504e-01  4.2008872949010190e-01  4.5714455665535131e-01  4.7925034963082253e-01  4.8845183235312073e-01  4.9485372226390623e-01  4.9807974581655373e-01  4.9936345339319327e-01  4.9982188905058539e-01  4.9995631464780060e-01  4.9998381143307835e-01  4.9997402527900947e-01  4.9994859915749384e-01  4.9991495433597671e-01  4.9986890951067875e-01  4.9982160803106929e-01  4.9976442974850638e-01  4.9971833715534753e-01  4.9970101002834516e-01  4.9974543367619467e-01  4.9989888671823668e-01  5.0018599821320009e-01  5.0059975296836090e-01  5.0102612506054733e-01  5.0129404055551785e-01  5.0131207600117700e-01  5.0112779021630183e-01  5.0084945177764884e-01  5.0056720607748562e-01  5.0032881831822518e-01  5.0014830879090288e-01  5.0002154869108606e-01  4.9993748359428125e-01  4.9988476330802201e-01  4.9985260775137680e-01  4.9983460459950219e-01  4.9981715402699928e-01  4.9979707547764074e-01  4.9970105386878061e-01  4.9947518542029201e-01  4.9860188350919932e-01  4.9665812753074445e-01  4.9170016270436645e-01  4.8238726296533058e-01  4.8292639117596353e-01  3.9716377200143893e-01  5.3194499503741455e-01  6.0527619275927635e-01  7.2752052989403471e-01  5.8761161569406339e-01  4.2013595853765784e-01  4.5714802578439734e-01  4.7922691622317798e-01  4.8843842699744161e-01  4.9483962129319892e-01  4.9807136512216171e-01  4.9935848738795602e-01  4.9981881884513074e-01  4.9995408365207389e-01  4.9998185299845688e-01  4.9997080071320066e-01  4.9994160028886914e-01  4.9989962648526659e-01  4.9983552953650268e-01  4.9976545090252494e-01  4.9965003841760919e-01  4.9955331908300649e-01  4.9945494447928923e-01  4.9945685855695188e-01  4.9965757174734682e-01  5.0012732608804955e-01  5.0090982880988399e-01  5.0168135166394301e-01  5.0202964821443374e-01  5.0185193181833565e-01  5.0137880729836937e-01  5.0086457520896743e-01  5.0044295154018603e-01  5.0014584742860724e-01  4.9995651512905220e-01  4.9984557045768485e-01  4.9978634343076822e-01  4.9975941384068179e-01  4.9975049703798913e-01  4.9975206958379881e-01  4.9975056500195547e-01  4.9974332461024151e-01  4.9965772503626005e-01  4.9944062630575065e-01  4.9857502189577607e-01  4.9663809512629953e-01  4.9168992118050303e-01  4.8238335856094011e-01  4.8296675228655189e-01  3.9718312489241703e-01  5.3236352088431227e-01  6.0555601606007214e-01  7.2779440598656941e-01  5.8777918344510927e-01  4.2016836837255800e-01  4.5714908681772159e-01  4.7920761371076198e-01  4.8842829459818687e-01  4.9482936284404117e-01  4.9806636914208335e-01  4.9935687168411375e-01  4.9981986772905013e-01  4.9995751027679436e-01  4.9998767025516977e-01  4.9997848426066638e-01  4.9994995047309515e-01  4.9990417645863799e-01  4.9982820997962790e-01  4.9973308226625662e-01  4.9953786643071796e-01  4.9938927584197951e-01  4.9910052131382937e-01  4.9905269321497991e-01  4.9926605189626300e-01  5.0007742658608756e-01  5.0169272391638209e-01  5.0302431010399085e-01  5.0321004263828084e-01  5.0238881970511251e-01  5.0132794500493338e-01  5.0049349864766179e-01  4.9997709341212199e-01  4.9970932756014153e-01  4.9959485456877556e-01  4.9956285382298660e-01  4.9957087863784511e-01  4.9959646034411309e-01  4.9962703961995475e-01  4.9965790451789571e-01  4.9967809833596971e-01  4.9968706643806277e-01  4.9961381581583075e-01  4.9940652271396796e-01  4.9854899679280046e-01  4.9661916653259713e-01  4.9167920899095857e-01  4.8237985911423181e-01  4.8299594421029274e-01  3.9720022133673261e-01  5.3269798042293548e-01  6.0577446208731756e-01  7.2799595294288799e-01  5.8790164199353478e-01  4.2018897850370157e-01  4.5714863071243694e-01  4.7919238018772303e-01  4.8842101381180064e-01  4.9482235749034126e-01  4.9806407928210028e-01  4.9935803065076373e-01  4.9982441561979235e-01  4.9996590378781686e-01  5.0000106711938408e-01  4.9999834001509258e-01  4.9997790718014423e-01  4.9993954062815815e-01  4.9986898180681888e-01  4.9975835437654503e-01  4.9950611962056540e-01  4.9931249933539235e-01  4.9865680138143098e-01  4.9865986205726209e-01  4.9856952133430549e-01  5.0028193974980206e-01  5.0372310486669170e-01  5.0550079377180090e-01  5.0460499418182925e-01  5.0218570269393548e-01  5.0023624242029729e-01  4.9922297489836065e-01  4.9887568698966278e-01  4.9887571506136524e-01  4.9900635043743402e-01  4.9915916836666474e-01  4.9929469046958003e-01  4.9940510002173472e-01  4.9949182731976344e-01  4.9956030267111406e-01  4.9960620136971556e-01  4.9963317388250111e-01  4.9957291431050710e-01  4.9937545501719321e-01  4.9852561150749902e-01  4.9660250676420870e-01  4.9166904365477165e-01  4.8237732067733169e-01  4.8301556113331401e-01  3.9721682206320319e-01  5.3295291201078676e-01  6.0593971157008575e-01  7.2813428691853554e-01  5.8798501211154830e-01  4.2020000623074966e-01  4.5714743559436816e-01  4.7918130932763919e-01  4.8841632091935067e-01  4.9481813930459656e-01  4.9806375047532053e-01  4.9936082170287005e-01  4.9983074991316523e-01  4.9997691349479972e-01  5.0001904465265956e-01  5.0002686359903892e-01  5.0002225655785904e-01  5.0000592766630469e-01  4.9996546056261454e-01  4.9987575540159068e-01  4.9965251986781140e-01  4.9941730724623473e-01  4.9842671716545728e-01  4.9883303642150906e-01  4.9752175889011480e-01  5.0204648553104503e-01  5.0805508430911639e-01  5.0846871466420795e-01  5.0463442357325017e-01  4.9944938881563172e-01  4.9691686528368406e-01  4.9643141059992141e-01  4.9691091490487677e-01  4.9759968180984010e-01  4.9821153838883553e-01  4.9867085629315111e-01  4.9899145577244475e-01  4.9921149154901123e-01  4.9936371550671099e-01  4.9947241301544154e-01  4.9954393195145425e-01  4.9958787655971648e-01  4.9953930730728707e-01  4.9935036811189948e-01  4.9850686756060270e-01  4.9658941280240543e-01  4.9166046281332332e-01  4.8237626597648059e-01  4.8302684694253017e-01  3.9723394582470362e-01  5.3313065643540525e-01  6.0605626075706120e-01  7.2821596143644307e-01  5.8803350350134387e-01  4.2020297979276033e-01  4.5714607043702871e-01  4.7917450115433058e-01  4.8841398404506986e-01  4.9481622228923350e-01  4.9806447396974807e-01  4.9936370954356041e-01  4.9983638271851055e-01  4.9998654391675479e-01  5.0003511761750952e-01  5.0005345077458396e-01  5.0006595091227724e-01  5.0007684030254029e-01  5.0007851013094728e-01  5.0004427765441439e-01  4.9991685796112895e-01  4.9966200180795178e-01  4.9873250548551101e-01  4.9909156322219500e-01  4.9445692987439271e-01  5.0495306521008243e-01  5.1113978235994795e-01  5.0694495416511121e-01  4.9970790970708268e-01  4.9133185871625862e-01  4.9070342526490102e-01  4.9226822841687101e-01  4.9439922706424344e-01  4.9617525110047056e-01  4.9741818488351036e-01  4.9822830264383011e-01  4.9873905503048477e-01  4.9906152242550833e-01  4.9926994253928464e-01  4.9941072309797896e-01  4.9950152184963587e-01  4.9955768816689428e-01  4.9951723022909150e-01  4.9933405737523601e-01  4.9849461167465087e-01  4.9658107475184066e-01  4.9165436143695729e-01  4.8237714451498215e-01  4.8303071309060303e-01  3.9725217328395446e-01  5.3323235354353471e-01  6.0612638316537548e-01  7.2824492149763798e-01  5.8804961836303582e-01  4.2019877241714004e-01  4.5714484511159681e-01  4.7917199877733885e-01  4.8841381678086027e-01  4.9481621430048806e-01  4.9806548124885758e-01  4.9936532567991104e-01  4.9983893157953369e-01  4.9999061198489808e-01  5.0004179832508699e-01  5.0006446694770734e-01  5.0008403433932602e-01  5.0010625631134531e-01  5.0012535770373323e-01  5.0011674673104356e-01  5.0002720520092347e-01  4.9974135683522480e-01  4.9901789776896172e-01  4.9807876545532459e-01  4.9185075101650466e-01  5.0518920488694974e-01  4.9766925130658290e-01  4.9930793458912365e-01  4.9130310001658956e-01  4.6663096372965884e-01  4.8264906050131640e-01  4.8905375986657312e-01  4.9286167761260147e-01  4.9542712833227975e-01  4.9704961212409116e-01  4.9804296479411758e-01  4.9864230276755400e-01  4.9900778525225414e-01  4.9923773990995490e-01  4.9938998724368150e-01  4.9948738200637305e-01  4.9954764055620487e-01  4.9950981368691855e-01  4.9932852728121718e-01  4.9849013661446639e-01  4.9657832586633499e-01  4.9165133129368149e-01  4.8238027436401537e-01  4.8302771271647499e