<?xml version="1.0"?>
<VTKFile type="UnstructuredGrid"  version="0.1"  >
<UnstructuredGrid>
<Piece  NumberOfPoints="1617" NumberOfCells="3072">
<Points>
<DataArray  type="Float64"  NumberOfComponents="3"  format="ascii">0 0 0  0.03125 0 0  0.0625 0 0  0.09375 0 0  0.125 0 0  0.15625 0 0  0.1875 0 0  0.21875 0 0  0.25 0 0  0.28125 0 0  0.3125 0 0  0.34375 0 0  0.375 0 0  0.40625 0 0  0.4375 0 0  0.46875 0 0  0.5 0 0  0.53125 0 0  0.5625 0 0  0.59375 0 0  0.625 0 0  0.65625 0 0  0.6875 0 0  0.71875 0 0  0.75 0 0  0.78125 0 0  0.8125 0 0  0.84375 0 0  0.875 0 0  0.90625 0 0  0.9375 0 0  0.96875 0 0  1 0 0  1.03125 0 0  1.0625 0 0  1.09375 0 0  1.125 0 0  1.15625 0 0  1.1875 0 0  1.21875 0 0  1.25 0 0  1.28125 0 0  1.3125 0 0  1.34375 0 0  1.375 0 0  1.40625 0 0  1.4375 0 0  1.46875 0 0  1.5 0 0  0 0.03125 0  0.03125 0.03125 0  0.0625 0.03125 0  0.09375 0.03125 0  0.125 0.03125 0  0.15625 0.03125 0  0.1875 0.03125 0  0.21875 0.03125 0  0.25 0.03125 0  0.28125 0.03125 0  0.3125 0.03125 0  0.34375 0.03125 0  0.375 0.03125 0  0.40625 0.03125 0  0.4375 0.03125 0  0.46875 0.03125 0  0.5 0.03125 0  0.53125 0.03125 0  0.5625 0.03125 0  0.59375 0.03125 0  0.625 0.03125 0  0.65625 0.03125 0  0.6875 0.03125 0  0.71875 0.03125 0  0.75 0.03125 0  0.78125 0.03125 0  0.8125 0.03125 0  0.84375 0.03125 0  0.875 0.03125 0  0.90625 0.03125 0  0.9375 0.03125 0  0.96875 0.03125 0  1 0.03125 0  1.03125 0.03125 0  1.0625 0.03125 0  1.09375 0.03125 0  1.125 0.03125 0  1.15625 0.03125 0  1.1875 0.03125 0  1.21875 0.03125 0  1.25 0.03125 0  1.28125 0.03125 0  1.3125 0.03125 0  1.34375 0.03125 0  1.375 0.03125 0  1.40625 0.03125 0  1.4375 0.03125 0  1.46875 0.03125 0  1.5 0.03125 0  0 0.0625 0  0.03125 0.0625 0  0.0625 0.0625 0  0.09375 0.0625 0  0.125 0.0625 0  0.15625 0.0625 0  0.1875 0.0625 0  0.21875 0.0625 0  0.25 0.0625 0  0.28125 0.0625 0  0.3125 0.0625 0  0.34375 0.0625 0  0.375 0.0625 0  0.40625 0.0625 0  0.4375 0.0625 0  0.46875 0.0625 0  0.5 0.0625 0  0.53125 0.0625 0  0.5625 0.0625 0  0.59375 0.0625 0  0.625 0.0625 0  0.65625 0.0625 0  0.6875 0.0625 0  0.71875 0.0625 0  0.75 0.0625 0  0.78125 0.0625 0  0.8125 0.0625 0  0.84375 0.0625 0  0.875 0.0625 0  0.90625 0.0625 0  0.9375 0.0625 0  0.96875 0.0625 0  1 0.0625 0  1.03125 0.0625 0  1.0625 0.0625 0  1.09375 0.0625 0  1.125 0.0625 0  1.15625 0.0625 0  1.1875 0.0625 0  1.21875 0.0625 0  1.25 0.0625 0  1.28125 0.0625 0  1.3125 0.0625 0  1.34375 0.0625 0  1.375 0.0625 0  1.40625 0.0625 0  1.4375 0.0625 0  1.46875 0.0625 0  1.5 0.0625 0  0 0.09375 0  0.03125 0.09375 0  0.0625 0.09375 0  0.09375 0.09375 0  0.125 0.09375 0  0.15625 0.09375 0  0.1875 0.09375 0  0.21875 0.09375 0  0.25 0.09375 0  0.28125 0.09375 0  0.3125 0.09375 0  0.34375 0.09375 0  0.375 0.09375 0  0.40625 0.09375 0  0.4375 0.09375 0  0.46875 0.09375 0  0.5 0.09375 0  0.53125 0.09375 0  0.5625 0.09375 0  0.59375 0.09375 0  0.625 0.09375 0  0.65625 0.09375 0  0.6875 0.09375 0  0.71875 0.09375 0  0.75 0.09375 0  0.78125 0.09375 0  0.8125 0.09375 0  0.84375 0.09375 0  0.875 0.09375 0  0.90625 0.09375 0  0.9375 0.09375 0  0.96875 0.09375 0  1 0.09375 0  1.03125 0.09375 0  1.0625 0.09375 0  1.09375 0.09375 0  1.125 0.09375 0  1.15625 0.09375 0  1.1875 0.09375 0  1.21875 0.09375 0  1.25 0.09375 0  1.28125 0.09375 0  1.3125 0.09375 0  1.34375 0.09375 0  1.375 0.09375 0  1.40625 0.09375 0  1.4375 0.09375 0  1.46875 0.09375 0  1.5 0.09375 0  0 0.125 0  0.03125 0.125 0  0.0625 0.125 0  0.09375 0.125 0  0.125 0.125 0  0.15625 0.125 0  0.1875 0.125 0  0.21875 0.125 0  0.25 0.125 0  0.28125 0.125 0  0.3125 0.125 0  0.34375 0.125 0  0.375 0.125 0  0.40625 0.125 0  0.4375 0.125 0  0.46875 0.125 0  0.5 0.125 0  0.53125 0.125 0  0.5625 0.125 0  0.59375 0.125 0  0.625 0.125 0  0.65625 0.125 0  0.6875 0.125 0  0.71875 0.125 0  0.75 0.125 0  0.78125 0.125 0  0.8125 0.125 0  0.84375 0.125 0  0.875 0.125 0  0.90625 0.125 0  0.9375 0.125 0  0.96875 0.125 0  1 0.125 0  1.03125 0.125 0  1.0625 0.125 0  1.09375 0.125 0  1.125 0.125 0  1.15625 0.125 0  1.1875 0.125 0  1.21875 0.125 0  1.25 0.125 0  1.28125 0.125 0  1.3125 0.125 0  1.34375 0.125 0  1.375 0.125 0  1.40625 0.125 0  1.4375 0.125 0  1.46875 0.125 0  1.5 0.125 0  0 0.15625 0  0.03125 0.15625 0  0.0625 0.15625 0  0.09375 0.15625 0  0.125 0.15625 0  0.15625 0.15625 0  0.1875 0.15625 0  0.21875 0.15625 0  0.25 0.15625 0  0.28125 0.15625 0  0.3125 0.15625 0  0.34375 0.15625 0  0.375 0.15625 0  0.40625 0.15625 0  0.4375 0.15625 0  0.46875 0.15625 0  0.5 0.15625 0  0.53125 0.15625 0  0.5625 0.15625 0  0.59375 0.15625 0  0.625 0.15625 0  0.65625 0.15625 0  0.6875 0.15625 0  0.71875 0.15625 0  0.75 0.15625 0  0.78125 0.15625 0  0.8125 0.15625 0  0.84375 0.15625 0  0.875 0.15625 0  0.90625 0.15625 0  0.9375 0.15625 0  0.96875 0.15625 0  1 0.15625 0  1.03125 0.15625 0  1.0625 0.15625 0  1.09375 0.15625 0  1.125 0.15625 0  1.15625 0.15625 0  1.1875 0.15625 0  1.21875 0.15625 0  1.25 0.15625 0  1.28125 0.15625 0  1.3125 0.15625 0  1.34375 0.15625 0  1.375 0.15625 0  1.40625 0.15625 0  1.4375 0.15625 0  1.46875 0.15625 0  1.5 0.15625 0  0 0.1875 0  0.03125 0.1875 0  0.0625 0.1875 0  0.09375 0.1875 0  0.125 0.1875 0  0.15625 0.1875 0  0.1875 0.1875 0  0.21875 0.1875 0  0.25 0.1875 0  0.28125 0.1875 0  0.3125 0.1875 0  0.34375 0.1875 0  0.375 0.1875 0  0.40625 0.1875 0  0.4375 0.1875 0  0.46875 0.1875 0  0.5 0.1875 0  0.53125 0.1875 0  0.5625 0.1875 0  0.59375 0.1875 0  0.625 0.1875 0  0.65625 0.1875 0  0.6875 0.1875 0  0.71875 0.1875 0  0.75 0.1875 0  0.78125 0.1875 0  0.8125 0.1875 0  0.84375 0.1875 0  0.875 0.1875 0  0.90625 0.1875 0  0.9375 0.1875 0  0.96875 0.1875 0  1 0.1875 0  1.03125 0.1875 0  1.0625 0.1875 0  1.09375 0.1875 0  1.125 0.1875 0  1.15625 0.1875 0  1.1875 0.1875 0  1.21875 0.1875 0  1.25 0.1875 0  1.28125 0.1875 0  1.3125 0.1875 0  1.34375 0.1875 0  1.375 0.1875 0  1.40625 0.1875 0  1.4375 0.1875 0  1.46875 0.1875 0  1.5 0.1875 0  0 0.21875 0  0.03125 0.21875 0  0.0625 0.21875 0  0.09375 0.21875 0  0.125 0.21875 0  0.15625 0.21875 0  0.1875 0.21875 0  0.21875 0.21875 0  0.25 0.21875 0  0.28125 0.21875 0  0.3125 0.21875 0  0.34375 0.21875 0  0.375 0.21875 0  0.40625 0.21875 0  0.4375 0.21875 0  0.46875 0.21875 0  0.5 0.21875 0  0.53125 0.21875 0  0.5625 0.21875 0  0.59375 0.21875 0  0.625 0.21875 0  0.65625 0.21875 0  0.6875 0.21875 0  0.71875 0.21875 0  0.75 0.21875 0  0.78125 0.21875 0  0.8125 0.21875 0  0.84375 0.21875 0  0.875 0.21875 0  0.90625 0.21875 0  0.9375 0.21875 0  0.96875 0.21875 0  1 0.21875 0  1.03125 0.21875 0  1.0625 0.21875 0  1.09375 0.21875 0  1.125 0.21875 0  1.15625 0.21875 0  1.1875 0.21875 0  1.21875 0.21875 0  1.25 0.21875 0  1.28125 0.21875 0  1.3125 0.21875 0  1.34375 0.21875 0  1.375 0.21875 0  1.40625 0.21875 0  1.4375 0.21875 0  1.46875 0.21875 0  1.5 0.21875 0  0 0.25 0  0.03125 0.25 0  0.0625 0.25 0  0.09375 0.25 0  0.125 0.25 0  0.15625 0.25 0  0.1875 0.25 0  0.21875 0.25 0  0.25 0.25 0  0.28125 0.25 0  0.3125 0.25 0  0.34375 0.25 0  0.375 0.25 0  0.40625 0.25 0  0.4375 0.25 0  0.46875 0.25 0  0.5 0.25 0  0.53125 0.25 0  0.5625 0.25 0  0.59375 0.25 0  0.625 0.25 0  0.65625 0.25 0  0.6875 0.25 0  0.71875 0.25 0  0.75 0.25 0  0.78125 0.25 0  0.8125 0.25 0  0.84375 0.25 0  0.875 0.25 0  0.90625 0.25 0  0.9375 0.25 0  0.96875 0.25 0  1 0.25 0  1.03125 0.25 0  1.0625 0.25 0  1.09375 0.25 0  1.125 0.25 0  1.15625 0.25 0  1.1875 0.25 0  1.21875 0.25 0  1.25 0.25 0  1.28125 0.25 0  1.3125 0.25 0  1.34375 0.25 0  1.375 0.25 0  1.40625 0.25 0  1.4375 0.25 0  1.46875 0.25 0  1.5 0.25 0  0 0.28125 0  0.03125 0.28125 0  0.0625 0.28125 0  0.09375 0.28125 0  0.125 0.28125 0  0.15625 0.28125 0  0.1875 0.28125 0  0.21875 0.28125 0  0.25 0.28125 0  0.28125 0.28125 0  0.3125 0.28125 0  0.34375 0.28125 0  0.375 0.28125 0  0.40625 0.28125 0  0.4375 0.28125 0  0.46875 0.28125 0  0.5 0.28125 0  0.53125 0.28125 0  0.5625 0.28125 0  0.59375 0.28125 0  0.625 0.28125 0  0.65625 0.28125 0  0.6875 0.28125 0  0.71875 0.28125 0  0.75 0.28125 0  0.78125 0.28125 0  0.8125 0.28125 0  0.84375 0.28125 0  0.875 0.28125 0  0.90625 0.28125 0  0.9375 0.28125 0  0.96875 0.28125 0  1 0.28125 0  1.03125 0.28125 0  1.0625 0.28125 0  1.09375 0.28125 0  1.125 0.28125 0  1.15625 0.28125 0  1.1875 0.28125 0  1.21875 0.28125 0  1.25 0.28125 0  1.28125 0.28125 0  1.3125 0.28125 0  1.34375 0.28125 0  1.375 0.28125 0  1.40625 0.28125 0  1.4375 0.28125 0  1.46875 0.28125 0  1.5 0.28125 0  0 0.3125 0  0.03125 0.3125 0  0.0625 0.3125 0  0.09375 0.3125 0  0.125 0.3125 0  0.15625 0.3125 0  0.1875 0.3125 0  0.21875 0.3125 0  0.25 0.3125 0  0.28125 0.3125 0  0.3125 0.3125 0  0.34375 0.3125 0  0.375 0.3125 0  0.40625 0.3125 0  0.4375 0.3125 0  0.46875 0.3125 0  0.5 0.3125 0  0.53125 0.3125 0  0.5625 0.3125 0  0.59375 0.3125 0  0.625 0.3125 0  0.65625 0.3125 0  0.6875 0.3125 0  0.71875 0.3125 0  0.75 0.3125 0  0.78125 0.3125 0  0.8125 0.3125 0  0.84375 0.3125 0  0.875 0.3125 0  0.90625 0.3125 0  0.9375 0.3125 0  0.96875 0.3125 0  1 0.3125 0  1.03125 0.3125 0  1.0625 0.3125 0  1.09375 0.3125 0  1.125 0.3125 0  1.15625 0.3125 0  1.1875 0.3125 0  1.21875 0.3125 0  1.25 0.3125 0  1.28125 0.3125 0  1.3125 0.3125 0  1.34375 0.3125 0  1.375 0.3125 0  1.40625 0.3125 0  1.4375 0.3125 0  1.46875 0.3125 0  1.5 0.3125 0  0 0.34375 0  0.03125 0.34375 0  0.0625 0.34375 0  0.09375 0.34375 0  0.125 0.34375 0  0.15625 0.34375 0  0.1875 0.34375 0  0.21875 0.34375 0  0.25 0.34375 0  0.28125 0.34375 0  0.3125 0.34375 0  0.34375 0.34375 0  0.375 0.34375 0  0.40625 0.34375 0  0.4375 0.34375 0  0.46875 0.34375 0  0.5 0.34375 0  0.53125 0.34375 0  0.5625 0.34375 0  0.59375 0.34375 0  0.625 0.34375 0  0.65625 0.34375 0  0.6875 0.34375 0  0.71875 0.34375 0  0.75 0.34375 0  0.78125 0.34375 0  0.8125 0.34375 0  0.84375 0.34375 0  0.875 0.34375 0  0.90625 0.34375 0  0.9375 0.34375 0  0.96875 0.34375 0  1 0.34375 0  1.03125 0.34375 0  1.0625 0.34375 0  1.09375 0.34375 0  1.125 0.34375 0  1.15625 0.34375 0  1.1875 0.34375 0  1.21875 0.34375 0  1.25 0.34375 0  1.28125 0.34375 0  1.3125 0.34375 0  1.34375 0.34375 0  1.375 0.34375 0  1
[...]
<PointData  Scalars="f_65"> 
<DataArray  type="Float64"  Name="f_65"  format="ascii">6.4032016147935533e-01  2.9703815137014322e-01  3.2037454563456080e-01  3.5963571372625358e-01  3.6857439978715106e-01  3.7660287231929174e-01  3.8214011941871445e-01  3.8733842400406893e-01  3.9257894173498947e-01  3.9795827621109514e-01  4.0352105826862494e-01  4.0925764253011743e-01  4.1516464242886542e-01  4.2123796065346136e-01  4.2747503066675308e-01  4.3387653384468211e-01  4.4044526455980948e-01  4.4718613464057183e-01  4.5410572476126315e-01  4.6121167151126896e-01  4.6851197564774472e-01  4.7601419447272969e-01  4.8372464180101443e-01  4.9164768453494795e-01  4.9978527496893138e-01  5.0813673299149054e-01  5.1669893259755173e-01  5.2546658622958087e-01  5.3443308652803234e-01  5.4359069000628657e-01  5.5293219308743891e-01  5.6244946874679558e-01  5.7213805176082888e-01  5.8198912497993083e-01  5.9200650904076424e-01  6.0217293154306606e-01  6.1251798729709939e-01  6.2298094060872089e-01  6.3368538814199482e-01  6.4437797936426944e-01  6.5555744396955196e-01  6.6607219108539240e-01  6.7809504760322625e-01  6.8600235983555347e-01  6.9955134124202489e-01  6.8665091461583105e-01  7.0033039825197452e-01  6.5794711179322873e-01  2.8886268952036409e-01  1.4686268899882593e+00  2.7007353254670352e-01  5.3096986052801975e-01  5.0772535069572633e-01  5.1691176925364302e-01  5.1844000552160052e-01  5.1780818947545071e-01  5.1746360345684561e-01  5.1699628005564169e-01  5.1652510102770410e-01  5.1600175916445246e-01  5.1542297437395435e-01  5.1479133882958872e-01  5.1410519507803565e-01  5.1336639630135605e-01  5.1257590677882126e-01  5.1173444647797695e-01  5.1084254635468440e-01  5.0990020082235155e-01  5.0890679743418188e-01  5.0786096284599080e-01  5.0676048234890214e-01  5.0560234257561210e-01  5.0438291552210557e-01  5.0309829659354655e-01  5.0174473772999018e-01  5.0031911477350532e-01  4.9881928301421880e-01  4.9724433560509557e-01  4.9559453936596948e-01  4.9387134382614006e-01  4.9207676703767661e-01  4.9021372051541601e-01  4.8828439267563073e-01  4.8629252596410494e-01  4.8423816731765484e-01  4.8212747458439709e-01  4.7995225146417175e-01  4.7773103353221885e-01  4.7541923564928334e-01  4.7309493212693227e-01  4.7051500378963929e-01  4.6802558333994254e-01  4.6408291299976923e-01  4.6052240122721488e-01  4.4385707547633724e-01  4.3799115778922876e-01  4.0008023089264044e-01  1.0008401757047325e-01  1.5434309075218429e+00  1.2664578740990867e-01  5.7324800144497245e-01  4.6271490579314140e-01  4.9703784064610695e-01  4.9292151267356854e-01  4.9380384089775903e-01  4.9422563924994045e-01  4.9458453160546939e-01  4.9495213575514047e-01  4.9528507097150226e-01  4.9561354753631098e-01  4.9593141240286198e-01  4.9624102535554260e-01  4.9654316596047793e-01  4.9683742706402173e-01  4.9712409283689835e-01  4.9740323876327919e-01  4.9767501944276871e-01  4.9793970050554720e-01  4.9819765473946603e-01  4.9844940338583260e-01  4.9869560968310178e-01  4.9893702496965403e-01  4.9917440276330455e-01  4.9940834735545242e-01  4.9963922712276271e-01  4.9986700175924664e-01  5.0009136741630889e-01  5.0031146102471813e-01  5.0052662055365627e-01  5.0073514998686808e-01  5.0093708785413871e-01  5.0112899456022775e-01  5.0131450062484451e-01  5.0148358294118056e-01  5.0165360878320420e-01  5.0178818727654118e-01  5.0195783730227361e-01  5.0201881415196437e-01  5.0225463822853644e-01  5.0205046849007384e-01  5.0255790627485730e-01  5.0088576698416465e-01  5.0143670654735950e-01  4.8742392114741950e-01  4.9393502718880383e-01  4.7004617589501368e-01  1.8414481971252786e-01  1.5544136427303137e+00  1.2045568177494935e-01  6.0865069672918271e-01  4.5479333976799280e-01  5.1218645169048305e-01  4.9881361812809127e-01  5.0203470939356976e-01  5.0147905252574532e-01  5.0143916968452640e-01  5.0130277226766717e-01  5.0118243052186351e-01  5.0106943852783659e-01  5.0095814057898680e-01  5.0085265577077021e-01  5.0075055423985448e-01  5.0065240486794682e-01  5.0055849342401226e-01  5.0046912762435980e-01  5.0038490844081474e-01  5.0030648152335544e-01  5.0023454972442505e-01  5.0016978018757974e-01  5.0011269465638641e-01  5.0006355887216114e-01  5.0002229748527172e-01  4.9998844085914923e-01  4.9996120093010876e-01  4.9993954052180917e-01  4.9992247316066118e-01  4.9990898562792890e-01  4.9989863042674315e-01  4.9989059134904723e-01  4.9988557085080076e-01  4.9988192932591141e-01  4.9988313754646613e-01  4.9988284684141071e-01  4.9989429071110397e-01  4.9989184906471401e-01  4.9992724818337220e-01  4.9989511489162852e-01  5.0000525796786910e-01  4.9978207372719813e-01  5.0012075007977252e-01  4.9853841809695520e-01  4.9891023478675617e-01  4.8516338903550799e-01  4.9098790999661007e-01  4.6917259302217296e-01  1.7599654269764001e-01  1.5562912191829923e+00  1.1848928906328600e-01  6.1199670882388579e-01  4.4791878859330586e-01  5.1377270261154251e-01  4.9476987084685026e-01  5.0085001528980355e-01  4.9950147072666684e-01  4.9980668453740129e-01  4.9976345664252125e-01  4.9979097887398877e-01  4.9979670517820118e-01  4.9980415696382507e-01  4.9980852358192385e-01  4.9980978040793300e-01  4.9980930949917168e-01  4.9980706587264750e-01  4.9980388911761514e-01  4.9980065709094929e-01  4.9979842170125194e-01  4.9979838681023464e-01  4.9980173966485691e-01  4.9980950167663213e-01  4.9982231757547552e-01  4.9984027147366700e-01  4.9986276302789573e-01  4.9988860237129185e-01  4.9991616137266054e-01  4.9994385172371919e-01  4.9997010782663648e-01  4.9999416545793185e-01  5.0001487636415465e-01  5.0003305014240507e-01  5.0004660168156168e-01  5.0005981686709722e-01  5.0006483422874493e-01  5.0007790934015028e-01  5.0006772452403991e-01  5.0009694286392770e-01  5.0003888413192998e-01  5.0014250591549503e-01  4.9985727354603066e-01  5.0020389428405543e-01  4.9849799207935519e-01  4.9889491579619760e-01  4.8493892834271612e-01  4.9123989930742956e-01  4.6985143711809868e-01  1.7568245241281086e-01  1.5562576036914129e+00  1.1786784596632753e-01  6.1387491158507790e-01  4.4698991499384205e-01  5.1486680958724762e-01  4.9421127032737611e-01  5.0167544607118086e-01  4.9961502591916424e-01  5.0017325167891902e-01  5.0004775517589384e-01  5.0005879314139856e-01  5.0003367712022606e-01  5.0001807717376334e-01  4.9999628815048830e-01  4.9997414404633678e-01  4.9995027901850136e-01  4.9992511977393050e-01  4.9989966630403326e-01  4.9987491873095291e-01  4.9985246283026197e-01  4.9983408914984750e-01  4.9982165788557409e-01  4.9981680308968096e-01  4.9982053165458212e-01  4.9983286803135862e-01  4.9985264021283149e-01  4.9987766516637355e-01  4.9990518346168045e-01  4.9993265920949653e-01  4.9995796543376730e-01  4.9998016906524206e-01  4.9999828668540591e-01  5.0001340769918989e-01  5.0002390022587906e-01  5.0003426326562994e-01  5.0003730240283395e-01  5.0004887010225274e-01  5.0003930960838638e-01  5.0006851806752450e-01  5.0001572901112024e-01  5.0011837790713876e-01  4.9984608155751126e-01  5.0018738306469945e-01  4.9850517001639016e-01  4.9892731143147168e-01  4.8496436415459870e-01  4.9120886934721975e-01  4.7040302406263645e-01  1.7596101186027763e-01  1.5563589993850380e+00  1.1739600172246677e-01  6.1456277552521799e-01  4.4630548215448046e-01  5.1516379406314294e-01  4.9397522316318060e-01  5.0179421813695002e-01  4.9945102825726950e-01  5.0019038831154083e-01  5.0000620812742780e-01  5.0003078686370228e-01  5.0001174498022216e-01  4.9999747170855302e-01  4.9997621553728161e-01  4.9995373026703521e-01  4.9992668290376774e-01  4.9989707681360479e-01  4.9986551042609184e-01  4.9983364134725322e-01  4.9980395477787892e-01  4.9977927597271959e-01  4.9976280774104381e-01  4.9975743932858441e-01  4.9976502927283462e-01  4.9978565352364246e-01  4.9981715583230663e-01  4.9985557536299630e-01  4.9989622272312562e-01  4.9993511509937782e-01  4.9996943638168018e-01  4.9999827032106536e-01  5.0002096823121067e-01  5.0003918276655535e-01  5.0005161610149207e-01  5.0006334946290809e-01  5.0006697064687644e-01  5.0007929461791734e-01  5.0006908220433166e-01  5.0009913539096273e-01  5.0004289883352548e-01  5.0014770477231563e-01  4.9986490116779037e-01  5.0021518743608973e-01  4.9851635744890838e-01  4.9898654002117726e-01  4.8496985770598366e-01  4.9115774366946940e-01  4.7068621068876260e-01  1.7583775500877105e-01  1.5566223698770811e+00  1.1705650921095541e-01  6.1487530740393692e-01  4.4597798835600516e-01  5.1547926956708545e-01  4.9384871833787464e-01  5.0182942828006616e-01  4.9941790632263439e-01  5.0022335525070305e-01  5.0000447203009768e-01  5.0004251859441751e-01  5.0002597983703045e-01  5.0000656464794435e-01  4.9998504498882956e-01  4.9995786242911006e-01  4.9992462511918656e-01  4.9988689518985630e-01  4.9984467803473709e-01  4.9980064648075478e-01  4.9975820647619840e-01  4.9972175348250664e-01  4.9969690154799135e-01  4.9968876439481436e-01  4.9970081615695633e-01  4.9973312106886697e-01  4.9978139616117639e-01  4.9983809090724557e-01  4.9989500087753336e-01  4.9994607279390491e-01  4.9998808989505034e-01  5.0002077272761314e-01  5.0004452150461842e-01  5.0006201322982269e-01  5.0007264887744085e-01  5.0008210476473358e-01  5.0008314236366735e-01  5.0009295381255348e-01  5.0008001650018552e-01  5.0010767057987882e-01  5.0004838687294151e-01  5.0015093239065567e-01  4.9986403870306129e-01  5.0021561322140429e-01  4.9851592956877749e-01  4.9901778482962816e-01  4.8498186766371010e-01  4.9107953905464663e-01  4.7090101695363445e-01  1.7589300780017289e-01  1.5569653215120571e+00  1.1673230773692421e-01  6.1503302335191423e-01  4.4583981463681505e-01  5.1570093521632709e-01  4.9373708640455638e-01  5.0189017197364072e-01  4.9941845660671402e-01  5.0024523637263274e-01  5.0001618915207580e-01  5.0006267942816274e-01  5.0004588555775209e-01  5.0002323953484829e-01  5.0000263666606937e-01  4.9996970696918358e-01  4.9993011693071815e-01  4.9988183570661526e-01  4.9982506658084253e-01  4.9976338956760408e-01  4.9970092777833292e-01  4.9964495235056750e-01  4.9960573424546967e-01  4.9959240158663371e-01  4.9961206405983893e-01  4.9966483765575792e-01  4.9974160045332922e-01  4.9982704699861052e-01  4.9990682278837517e-01  4.9997258031043368e-01  5.0002179459087404e-01  5.0005645351007189e-01  5.0007911608028621e-01  5.0009400075709176e-01  5.0010147457722876e-01  5.0010778768265507e-01  5.0010574957321730e-01  5.0011300810124248e-01  5.0009731178396155e-01  5.0012323624361099e-01  5.0006085971558423e-01  5.0016298469704878e-01  4.9987159473410159e-01  5.0022796769668298e-01  4.9852693808578546e-01  4.9906001575101278e-01  4.8501143017056708e-01  4.9101530173169788e-01  4.7109080103475992e-01  1.7596077684610822e-01  1.5573151190561985e+00  1.1642732046646988e-01  6.1516930027618610e-01  4.4578700584939990e-01  5.1584091119663700e-01  4.9366994653593843e-01  5.0195632894151909e-01  4.9941013024502534e-01  5.0026608819663232e-01  5.0003301143682088e-01  5.0008471994772186e-01  5.0006941547724038e-01  5.0004761169221312e-01  5.0002854228539018e-01  4.9999143824412029e-01  4.9994619408598356e-01  4.9988577687200686e-01  4.9981034175935718e-01  4.9972369763284918e-01  4.9962942937744265e-01  4.9954094083013006e-01  4.9947652875656928e-01  4.9945287595564292e-01  4.9948708533777336e-01  4.9957871509163393e-01  4.9970593744637998e-01  4.9983667575678109e-01  4.9994657771970008e-01  5.0002618992664061e-01  5.0007800686251469e-01  5.0010921580432222e-01  5.0012582901862690e-01  5.0013436970060321e-01  5.0013580935136559e-01  5.0013691623497081e-01  5.0013029549244226e-01  5.0013380971776999e-01  5.0011458771058470e-01  5.0013794460300220e-01  5.0007236319901727e-01  5.0017319029500151e-01  4.9987826520962531e-01  5.0023761413284096e-01  4.9853721398773848e-01  4.9909421259174708e-01  4.8504027491953183e-01  4.9095647304347134e-01  4.7124519493155542e-01  1.7603146497013408e-01  1.5576433402691483e+00  1.1615030397595211e-01  6.1529540348106848e-01  4.4575186694436025e-01  5.1593810763081627e-01  4.9364019667454517e-01  5.0200907627187419e-01  4.9940538407665036e-01  5.0029644446943089e-01  5.0005462751571861e-01  5.0011364976840567e-01  5.0010188104163567e-01  5.0008385204072370e-01  5.0006792152198298e-01  5.0003026252471861e-01  4.9998115265222881e-01  4.9990872973390532e-01  4.9981004529632372e-01  4.9968834850485494e-01  4.9954201325901088e-01  4.9939869336862125e-01  4.9928610851134120e-01  4.9923925720879531e-01  4.9930466728988465e-01  4.9947573066481626e-01  4.9969664680521392e-01  4.9989655152235063e-01  5.0003790822787264e-01  5.0012190302128390e-01  5.0016431933550842e-01  5.0018152719426479e-01  5.0018522994262904e-01  5.0018248780269892e-01  5.0017498837418184e-01  5.0016893517392558e-01  5.0015653118618830e-01  5.0015554202200674e-01  5.0013234283158925e-01  5.0015292647611054e-01  5.0008410228043698e-01  5.0018378499678173e-01  4.9988563869449015e-01  5.0024790792111284e-01  4.9854834606109344e-01  4.9912526931479129e-01  4.8506924748010888e-01  4.9090847246904346e-01  4.7137955813763649e-01  1.7610525464841228e-01  1.5579357051981877e+00  1.1590491863079612e-01  6.1541039307933332e-01  4.4572283224923692e-01  5.1601768195753983e-01  4.9362799176144762e-01  5.0204835890234045e-01  4.9940953470487087e-01  5.0032876917694791e-01  5.0007803989031729e-01  5.0014867627658033e-01  5.0014200078884730e-01  5.0013173311770953e-01  5.0012331897897122e-01  5.0009147866073833e-01  5.0004423487814575e-01  4.9996481050048486e-01  4.9984180927830624e-01  4.9967571524400911e-01  4.9944649751171916e-01  4.9921141983717271e-01  4.9899028337918255e-01  4.9888584371018230e-01  4.9903270707117980e-01  4.9938396833984561e-01  4.9977923536913849e-01  5.0006486135185202e-01  5.0021871363572401e-01  5.0027643669300148e-01  5.0028367746180324e-01  5.0027305034610636e-01  5.0025430510846036e-01  5.0023606579095781e-01  5.0021685289414120e-01  5.0020222976618989e-01  5.0018320632035718e-01  5.0017721479978738e-01  5.0014981849449880e-01  5.0016747354484115e-01  5.0009551489277437e-01  5.0019397127208254e-01  4.9989300174562179e-01  5.0025756652794173e-01  4.9855884431426983e-01  4.9915173238431904e-01  4.8509514726611208e-01  4.9087083588989838e-01  4.7149245521700178e-01  1.7617433195951196e-01  1.5581836357990568e+00  1.1569503239208928e-01  6.1551168918588262e-01  4.4569743873652312e-01  5.1608491189058014e-01  4.9362196329433689e-01  5.0208014666698375e-01  4.9941998592723441e-01  5.0035903346978794e-01  5.0010410001304240e-01  5.0018810943449188e-01  5.0018839663540349e-01  5.0019079695749991e-01  5.0019629491531659e-01  5.0017998072544156e-01  5.0014726581633862e-01  5.0007567804305020e-01  4.9993962906256262e-01  4.9972702328372332e-01  4.9937070461307953e-01  4.9896730047863774e-01  4.9846554963904260e-01  4.9826091766778141e-01  4.9866740451290203e-01  4.9942954830968261e-01  5.0012180165420328e-01  5.0045676252636717e-01  5.0052632810631692e-01  5.0048649925343403e-01  5.0042958318823161e-01  5.0037166239439224e-01  5.0032652069757311e-01  5.0028953140224941e-01  5.0025791051525104e-01  5.0023430483443565e-01  5.0020851719589243e-01  5.0019752461242373e-01  5.0016601292865293e-01  5.0018084528955176e-01  5.0010595019690707e-01  5.0020329040308775e-01  4.9989974852311486e-01  5.0026626016880038e-01  4.9856788845679267e-01  4.9917363390143610e-01  4.8511664957237222e-01  4.9084356984247302e-01  4.7158495173536502e-01  1.7623637256035773e-01  1.5583815700338346e+00  1.1552390070660036e-01  6.1559618402146943e-01  4.4567571656816712e-01  5.1614058819893549e-01  4.9361835110639968e-01  5.0210691536784890e-01  4.9943214580031092e-01  5.0038582725410308e-01  5.0013094180743323e-01  5.0022773257272934e-01  5.0023739036338988e-01  5.0025682516695225e-01  5.0028336278991581e-01  5.0029501185928371e-01  5.0029710830722107e-01  5.0026207580874371e-01  5.0015005819539760e-01  4.9991787482808453e-01  4.9941151829656905e-01  4.9870934460030952e-01  4.9755548814526190e-01  4.9725446670021445e-01  4.9832133838781545e-01  5.0003506511553131e-01  5.0113717849059414e-01  5.0115834091314682e-01  5.0092813624237664e-01  5.0071326760144430e-01  5.0055433337366972e-01  5.0045959121968053e-01  5.0038778542925610e-01  5.0033611128030009e-01  5.0029381513774762e-01  5.0026228606794543e-01  5.0023055979528264e-01  5.0021509329736336e-01  5.0017993080122392e-01  5.0019229341067029e-01  5.0011482632211590e-01  5.0021125747892869e-01  4.9990541512801889e-01  5.0027359237705415e-01  4.9857486623821307e-01  4.9919081715838565e-01  4.8513273581460764e-01  4.9082651946544065e-01  4.7165632043990829e-01  1.7628883466127207e-01  1.5585256090743838e+00  1.1539437196307493e-01  6.1566108809269071e-01  4.4565826862000740e-01  5.1618417460732324e-01  4.9361558453304710e-01  5.0212833806428825e-01  4.9944265729611298e-01  5.0040768441416028e-01  5.0015462905493924e-01  5.0026242725103587e-01  5.0028256994353482e-01  5.0032061208554701e-01  5.0037268233721555e-01  5.0042291097654334e-01  5.0048228720514720e-01  5.0052747197599279e-01  5.0052356155898925e-01  5.0038978274780910e-01  4.9983905733710959e-01  4.9862011418507468e-01  4.9594398878132612e-01  4.9526044757896570e-01  4.9845321890669941e-01  5.0250523440579309e-01  5.0355574801269531e-01  5.0208661508368035e-01  5.0097983648916056e-01  5.0073679874542065e-01  5.0060172997658803e-01  5.0049811889406859e-01  5.0042620500613000e-01  5.0036912646806020e-01  5.0032042861609660e-01  5.0028372518615261e-01  5.0024750190537282e-01  5.0022861688497910e-01  5.0019060169647156e-01  5.0020108018755294e-01  5.0012154633972949e-01  5.0021740400775083e-01  4.9990952692086821e-01  5.0027921740519121e-01  4.9857923124819609e-01  4.9920310452782096e-01  4.8514263242804989e-01  4.9081945868382354e-01  4.7170573103649455e-01  1.7632998809220657e-01  1.5586130837820260e+00  1.1530874320021986e-01  6.1570401632817007e-01  4.4564575564337894e-01  5.1621490818084448e-01  4.9361279522550700e-01  5.0214331192485506e-01  4.9944929475339145e-01  5.0042254761132543e-01  5.0017092395388563e-01  5.0028669769866152e-01  5.0031535739835031e-01  5.0036874416623633e-01  5.0044390999230626e-01  5.0053365709522013e-01  5.0066182850079333e-01  5.0083161872985504e-01  5.0106260873906650e-01  5.0133178303370041e-01  5.0141290107506009e-01  5.0077881966027649e-01  4.9790112854582225e-01  4.9566075594691744e-01  5.0108023613150021e-01  5.1181139490296090e-01  5.1234158296856436e-01  5.0039529974088059e-01  5.0017183645458962e-01  5.0013518434648441e-01  5.0042506522831420e-01  5.0046700777733977e-01  5.0043570703078644e-01  5.0038476530560416e-01  5.0033621087099944e-01  5.0029684717778922e-01  5.0025803045091899e-01  5.0023710414248979e-01  5.0019724639499386e-01  5.0020661739536731e-01  5.0012564354708999e-01  5.0022135961634184e-01  4.9991173697558300e-01  5.0028287496419432e-01  4.9858059972098029e-01  4.9921034657020436e-01  4.8514580409897612e-01  4.9082227236787990e-01  4.7173234569260880e-01  1.7635871059871730e-01  1.5586423113212000e+00  1.1526859311013138e-01  6.1572321791478912e-01  4.4563878590899159e-01  5.1623215509859355e-01  4.9360948792822884e-01  5.0215089637909271e-01  4.9945066696007634e-01  5.0042857703985844e-01  5.0017657395664705e-01  5.0029588384585499e-01  5.0032773374800310e-01  5.0038763907877548e-01  5.0047302096723223e-01  5.0058199550422189e-01  5.0074669958394336e-01  5.0099154661932987e-01  5.0137905302364660e-01  5.0197118269395091e-01  5.0275114899273610e-01  5.0343910434004491e-01  5.0294532872622022e-01  4.9850239314346156e-01  5.2139976356184914e-01  5.1836697922833030e-01  5.2361273197121994e-01  5.2177017599148934e-01  4.9516600180625964e-01  4.9930297657676054e-01  5.0013938668828906e-01  5.0041356112559421e-01  5.0042735445051445e-01  5.0038908859279907e-01  5.0034123457267021e-01  5.0030103464321429e-01  5.0026155092275559e-01  5.0023990642943528e-01  5.0019938769477290e-01  5.0020852487825740e-01  5.0012681317757302e-01  5.0022288380389290e-01  4.9991181805810236e-01  5.0028439321131613e-01  4.9857871232463208e-01  4.9921240955503654e-01  4.8514188031119565e