<?xml version="1.0"?>
<VTKFile type="UnstructuredGrid"  version="0.1"  >
<UnstructuredGrid>
<Piece  NumberOfPoints="1617" NumberOfCells="3072">
<Points>
<DataArray  type="Float64"  NumberOfComponents="3"  format="ascii">0 0 0  0.03125 0 0  0.0625 0 0  0.09375 0 0  0.125 0 0  0.15625 0 0  0.1875 0 0  0.21875 0 0  0.25 0 0  0.28125 0 0  0.3125 0 0  0.34375 0 0  0.375 0 0  0.40625 0 0  0.4375 0 0  0.46875 0 0  0.5 0 0  0.53125 0 0  0.5625 0 0  0.59375 0 0  0.625 0 0  0.65625 0 0  0.6875 0 0  0.71875 0 0  0.75 0 0  0.78125 0 0  0.8125 0 0  0.84375 0 0  0.875 0 0  0.90625 0 0  0.9375 0 0  0.96875 0 0  1 0 0  1.03125 0 0  1.0625 0 0  1.09375 0 0  1.125 0 0  1.15625 0 0  1.1875 0 0  1.21875 0 0  1.25 0 0  1.28125 0 0  1.3125 0 0  1.34375 0 0  1.375 0 0  1.40625 0 0  1.4375 0 0  1.46875 0 0  1.5 0 0  0 0.03125 0  0.03125 0.03125 0  0.0625 0.03125 0  0.09375 0.03125 0  0.125 0.03125 0  0.15625 0.03125 0  0.1875 0.03125 0  0.21875 0.03125 0  0.25 0.03125 0  0.28125 0.03125 0  0.3125 0.03125 0  0.34375 0.03125 0  0.375 0.03125 0  0.40625 0.03125 0  0.4375 0.03125 0  0.46875 0.03125 0  0.5 0.03125 0  0.53125 0.03125 0  0.5625 0.03125 0  0.59375 0.03125 0  0.625 0.03125 0  0.65625 0.03125 0  0.6875 0.03125 0  0.71875 0.03125 0  0.75 0.03125 0  0.78125 0.03125 0  0.8125 0.03125 0  0.84375 0.03125 0  0.875 0.03125 0  0.90625 0.03125 0  0.9375 0.03125 0  0.96875 0.03125 0  1 0.03125 0  1.03125 0.03125 0  1.0625 0.03125 0  1.09375 0.03125 0  1.125 0.03125 0  1.15625 0.03125 0  1.1875 0.03125 0  1.21875 0.03125 0  1.25 0.03125 0  1.28125 0.03125 0  1.3125 0.03125 0  1.34375 0.03125 0  1.375 0.03125 0  1.40625 0.03125 0  1.4375 0.03125 0  1.46875 0.03125 0  1.5 0.03125 0  0 0.0625 0  0.03125 0.0625 0  0.0625 0.0625 0  0.09375 0.0625 0  0.125 0.0625 0  0.15625 0.0625 0  0.1875 0.0625 0  0.21875 0.0625 0  0.25 0.0625 0  0.28125 0.0625 0  0.3125 0.0625 0  0.34375 0.0625 0  0.375 0.0625 0  0.40625 0.0625 0  0.4375 0.0625 0  0.46875 0.0625 0  0.5 0.0625 0  0.53125 0.0625 0  0.5625 0.0625 0  0.59375 0.0625 0  0.625 0.0625 0  0.65625 0.0625 0  0.6875 0.0625 0  0.71875 0.0625 0  0.75 0.0625 0  0.78125 0.0625 0  0.8125 0.0625 0  0.84375 0.0625 0  0.875 0.0625 0  0.90625 0.0625 0  0.9375 0.0625 0  0.96875 0.0625 0  1 0.0625 0  1.03125 0.0625 0  1.0625 0.0625 0  1.09375 0.0625 0  1.125 0.0625 0  1.15625 0.0625 0  1.1875 0.0625 0  1.21875 0.0625 0  1.25 0.0625 0  1.28125 0.0625 0  1.3125 0.0625 0  1.34375 0.0625 0  1.375 0.0625 0  1.40625 0.0625 0  1.4375 0.0625 0  1.46875 0.0625 0  1.5 0.0625 0  0 0.09375 0  0.03125 0.09375 0  0.0625 0.09375 0  0.09375 0.09375 0  0.125 0.09375 0  0.15625 0.09375 0  0.1875 0.09375 0  0.21875 0.09375 0  0.25 0.09375 0  0.28125 0.09375 0  0.3125 0.09375 0  0.34375 0.09375 0  0.375 0.09375 0  0.40625 0.09375 0  0.4375 0.09375 0  0.46875 0.09375 0  0.5 0.09375 0  0.53125 0.09375 0  0.5625 0.09375 0  0.59375 0.09375 0  0.625 0.09375 0  0.65625 0.09375 0  0.6875 0.09375 0  0.71875 0.09375 0  0.75 0.09375 0  0.78125 0.09375 0  0.8125 0.09375 0  0.84375 0.09375 0  0.875 0.09375 0  0.90625 0.09375 0  0.9375 0.09375 0  0.96875 0.09375 0  1 0.09375 0  1.03125 0.09375 0  1.0625 0.09375 0  1.09375 0.09375 0  1.125 0.09375 0  1.15625 0.09375 0  1.1875 0.09375 0  1.21875 0.09375 0  1.25 0.09375 0  1.28125 0.09375 0  1.3125 0.09375 0  1.34375 0.09375 0  1.375 0.09375 0  1.40625 0.09375 0  1.4375 0.09375 0  1.46875 0.09375 0  1.5 0.09375 0  0 0.125 0  0.03125 0.125 0  0.0625 0.125 0  0.09375 0.125 0  0.125 0.125 0  0.15625 0.125 0  0.1875 0.125 0  0.21875 0.125 0  0.25 0.125 0  0.28125 0.125 0  0.3125 0.125 0  0.34375 0.125 0  0.375 0.125 0  0.40625 0.125 0  0.4375 0.125 0  0.46875 0.125 0  0.5 0.125 0  0.53125 0.125 0  0.5625 0.125 0  0.59375 0.125 0  0.625 0.125 0  0.65625 0.125 0  0.6875 0.125 0  0.71875 0.125 0  0.75 0.125 0  0.78125 0.125 0  0.8125 0.125 0  0.84375 0.125 0  0.875 0.125 0  0.90625 0.125 0  0.9375 0.125 0  0.96875 0.125 0  1 0.125 0  1.03125 0.125 0  1.0625 0.125 0  1.09375 0.125 0  1.125 0.125 0  1.15625 0.125 0  1.1875 0.125 0  1.21875 0.125 0  1.25 0.125 0  1.28125 0.125 0  1.3125 0.125 0  1.34375 0.125 0  1.375 0.125 0  1.40625 0.125 0  1.4375 0.125 0  1.46875 0.125 0  1.5 0.125 0  0 0.15625 0  0.03125 0.15625 0  0.0625 0.15625 0  0.09375 0.15625 0  0.125 0.15625 0  0.15625 0.15625 0  0.1875 0.15625 0  0.21875 0.15625 0  0.25 0.15625 0  0.28125 0.15625 0  0.3125 0.15625 0  0.34375 0.15625 0  0.375 0.15625 0  0.40625 0.15625 0  0.4375 0.15625 0  0.46875 0.15625 0  0.5 0.15625 0  0.53125 0.15625 0  0.5625 0.15625 0  0.59375 0.15625 0  0.625 0.15625 0  0.65625 0.15625 0  0.6875 0.15625 0  0.71875 0.15625 0  0.75 0.15625 0  0.78125 0.15625 0  0.8125 0.15625 0  0.84375 0.15625 0  0.875 0.15625 0  0.90625 0.15625 0  0.9375 0.15625 0  0.96875 0.15625 0  1 0.15625 0  1.03125 0.15625 0  1.0625 0.15625 0  1.09375 0.15625 0  1.125 0.15625 0  1.15625 0.15625 0  1.1875 0.15625 0  1.21875 0.15625 0  1.25 0.15625 0  1.28125 0.15625 0  1.3125 0.15625 0  1.34375 0.15625 0  1.375 0.15625 0  1.40625 0.15625 0  1.4375 0.15625 0  1.46875 0.15625 0  1.5 0.15625 0  0 0.1875 0  0.03125 0.1875 0  0.0625 0.1875 0  0.09375 0.1875 0  0.125 0.1875 0  0.15625 0.1875 0  0.1875 0.1875 0  0.21875 0.1875 0  0.25 0.1875 0  0.28125 0.1875 0  0.3125 0.1875 0  0.34375 0.1875 0  0.375 0.1875 0  0.40625 0.1875 0  0.4375 0.1875 0  0.46875 0.1875 0  0.5 0.1875 0  0.53125 0.1875 0  0.5625 0.1875 0  0.59375 0.1875 0  0.625 0.1875 0  0.65625 0.1875 0  0.6875 0.1875 0  0.71875 0.1875 0  0.75 0.1875 0  0.78125 0.1875 0  0.8125 0.1875 0  0.84375 0.1875 0  0.875 0.1875 0  0.90625 0.1875 0  0.9375 0.1875 0  0.96875 0.1875 0  1 0.1875 0  1.03125 0.1875 0  1.0625 0.1875 0  1.09375 0.1875 0  1.125 0.1875 0  1.15625 0.1875 0  1.1875 0.1875 0  1.21875 0.1875 0  1.25 0.1875 0  1.28125 0.1875 0  1.3125 0.1875 0  1.34375 0.1875 0  1.375 0.1875 0  1.40625 0.1875 0  1.4375 0.1875 0  1.46875 0.1875 0  1.5 0.1875 0  0 0.21875 0  0.03125 0.21875 0  0.0625 0.21875 0  0.09375 0.21875 0  0.125 0.21875 0  0.15625 0.21875 0  0.1875 0.21875 0  0.21875 0.21875 0  0.25 0.21875 0  0.28125 0.21875 0  0.3125 0.21875 0  0.34375 0.21875 0  0.375 0.21875 0  0.40625 0.21875 0  0.4375 0.21875 0  0.46875 0.21875 0  0.5 0.21875 0  0.53125 0.21875 0  0.5625 0.21875 0  0.59375 0.21875 0  0.625 0.21875 0  0.65625 0.21875 0  0.6875 0.21875 0  0.71875 0.21875 0  0.75 0.21875 0  0.78125 0.21875 0  0.8125 0.21875 0  0.84375 0.21875 0  0.875 0.21875 0  0.90625 0.21875 0  0.9375 0.21875 0  0.96875 0.21875 0  1 0.21875 0  1.03125 0.21875 0  1.0625 0.21875 0  1.09375 0.21875 0  1.125 0.21875 0  1.15625 0.21875 0  1.1875 0.21875 0  1.21875 0.21875 0  1.25 0.21875 0  1.28125 0.21875 0  1.3125 0.21875 0  1.34375 0.21875 0  1.375 0.21875 0  1.40625 0.21875 0  1.4375 0.21875 0  1.46875 0.21875 0  1.5 0.21875 0  0 0.25 0  0.03125 0.25 0  0.0625 0.25 0  0.09375 0.25 0  0.125 0.25 0  0.15625 0.25 0  0.1875 0.25 0  0.21875 0.25 0  0.25 0.25 0  0.28125 0.25 0  0.3125 0.25 0  0.34375 0.25 0  0.375 0.25 0  0.40625 0.25 0  0.4375 0.25 0  0.46875 0.25 0  0.5 0.25 0  0.53125 0.25 0  0.5625 0.25 0  0.59375 0.25 0  0.625 0.25 0  0.65625 0.25 0  0.6875 0.25 0  0.71875 0.25 0  0.75 0.25 0  0.78125 0.25 0  0.8125 0.25 0  0.84375 0.25 0  0.875 0.25 0  0.90625 0.25 0  0.9375 0.25 0  0.96875 0.25 0  1 0.25 0  1.03125 0.25 0  1.0625 0.25 0  1.09375 0.25 0  1.125 0.25 0  1.15625 0.25 0  1.1875 0.25 0  1.21875 0.25 0  1.25 0.25 0  1.28125 0.25 0  1.3125 0.25 0  1.34375 0.25 0  1.375 0.25 0  1.40625 0.25 0  1.4375 0.25 0  1.46875 0.25 0  1.5 0.25 0  0 0.28125 0  0.03125 0.28125 0  0.0625 0.28125 0  0.09375 0.28125 0  0.125 0.28125 0  0.15625 0.28125 0  0.1875 0.28125 0  0.21875 0.28125 0  0.25 0.28125 0  0.28125 0.28125 0  0.3125 0.28125 0  0.34375 0.28125 0  0.375 0.28125 0  0.40625 0.28125 0  0.4375 0.28125 0  0.46875 0.28125 0  0.5 0.28125 0  0.53125 0.28125 0  0.5625 0.28125 0  0.59375 0.28125 0  0.625 0.28125 0  0.65625 0.28125 0  0.6875 0.28125 0  0.71875 0.28125 0  0.75 0.28125 0  0.78125 0.28125 0  0.8125 0.28125 0  0.84375 0.28125 0  0.875 0.28125 0  0.90625 0.28125 0  0.9375 0.28125 0  0.96875 0.28125 0  1 0.28125 0  1.03125 0.28125 0  1.0625 0.28125 0  1.09375 0.28125 0  1.125 0.28125 0  1.15625 0.28125 0  1.1875 0.28125 0  1.21875 0.28125 0  1.25 0.28125 0  1.28125 0.28125 0  1.3125 0.28125 0  1.34375 0.28125 0  1.375 0.28125 0  1.40625 0.28125 0  1.4375 0.28125 0  1.46875 0.28125 0  1.5 0.28125 0  0 0.3125 0  0.03125 0.3125 0  0.0625 0.3125 0  0.09375 0.3125 0  0.125 0.3125 0  0.15625 0.3125 0  0.1875 0.3125 0  0.21875 0.3125 0  0.25 0.3125 0  0.28125 0.3125 0  0.3125 0.3125 0  0.34375 0.3125 0  0.375 0.3125 0  0.40625 0.3125 0  0.4375 0.3125 0  0.46875 0.3125 0  0.5 0.3125 0  0.53125 0.3125 0  0.5625 0.3125 0  0.59375 0.3125 0  0.625 0.3125 0  0.65625 0.3125 0  0.6875 0.3125 0  0.71875 0.3125 0  0.75 0.3125 0  0.78125 0.3125 0  0.8125 0.3125 0  0.84375 0.3125 0  0.875 0.3125 0  0.90625 0.3125 0  0.9375 0.3125 0  0.96875 0.3125 0  1 0.3125 0  1.03125 0.3125 0  1.0625 0.3125 0  1.09375 0.3125 0  1.125 0.3125 0  1.15625 0.3125 0  1.1875 0.3125 0  1.21875 0.3125 0  1.25 0.3125 0  1.28125 0.3125 0  1.3125 0.3125 0  1.34375 0.3125 0  1.375 0.3125 0  1.40625 0.3125 0  1.4375 0.3125 0  1.46875 0.3125 0  1.5 0.3125 0  0 0.34375 0  0.03125 0.34375 0  0.0625 0.34375 0  0.09375 0.34375 0  0.125 0.34375 0  0.15625 0.34375 0  0.1875 0.34375 0  0.21875 0.34375 0  0.25 0.34375 0  0.28125 0.34375 0  0.3125 0.34375 0  0.34375 0.34375 0  0.375 0.34375 0  0.40625 0.34375 0  0.4375 0.34375 0  0.46875 0.34375 0  0.5 0.34375 0  0.53125 0.34375 0  0.5625 0.34375 0  0.59375 0.34375 0  0.625 0.34375 0  0.65625 0.34375 0  0.6875 0.34375 0  0.71875 0.34375 0  0.75 0.34375 0  0.78125 0.34375 0  0.8125 0.34375 0  0.84375 0.34375 0  0.875 0.34375 0  0.90625 0.34375 0  0.9375 0.34375 0  0.96875 0.34375 0  1 0.34375 0  1.03125 0.34375 0  1.0625 0.34375 0  1.09375 0.34375 0  1.125 0.34375 0  1.15625 0.34375 0  1.1875 0.34375 0  1.21875 0.34375 0  1.25 0.34375 0  1.28125 0.34375 0  1.3125 0.34375 0  1.34375 0.34375 0  1.375 0.34375 0  1
[...]
<PointData  Scalars="f_65"> 
<DataArray  type="Float64"  Name="f_65"  format="ascii">3.3833277705553266e-01  3.2941317343722631e-01  3.1264651003916216e-01  3.3984242126997410e-01  3.5365350126876233e-01  3.6759478887972585e-01  3.7970599503708619e-01  3.9011771594982569e-01  3.9915205681817173e-01  4.0712698207743386e-01  4.1437610137035469e-01  4.2117904903688069e-01  4.2774647010689482e-01  4.3422270411244218e-01  4.4070019957969042e-01  4.4723643490691362e-01  4.5386787083911434e-01  4.6061937760399435e-01  4.6750956545279493e-01  4.7455319752796354e-01  4.8176185712220304e-01  4.8914376938658233e-01  4.9670339340072478e-01  5.0444117659060583e-01  5.1235368891868649e-01  5.2043420409689056e-01  5.2867366218282175e-01  5.3706184522814138e-01  5.4558854299534298e-01  5.5424448267771786e-01  5.6302181937996831e-01  5.7191397704725022e-01  5.8091450578430914e-01  5.9001431658368653e-01  5.9919608780230105e-01  6.0842418904637563e-01  6.1762782511012881e-01  6.2667811907095194e-01  6.3535683771790796e-01  6.4334041418006493e-01  6.5017121303090519e-01  6.5532694972652128e-01  6.5810484435959304e-01  6.5754154838132228e-01  6.5623722979170429e-01  6.3309853513415271e-01  5.8304539460241522e-01  8.0627772737649639e-01  1.0792622183215344e+00  5.8171692307592204e-01  5.5725208408851201e-01  4.4985388093560974e-01  4.9508798735971016e-01  5.0548464641890267e-01  5.1383803152150831e-01  5.2012398833484830e-01  5.2448279252566488e-01  5.2709122936736563e-01  5.2836137474499456e-01  5.2868376842664699e-01  5.2838534256472569e-01  5.2771143338600202e-01  5.2682552310623909e-01  5.2582751124643090e-01  5.2477405388323439e-01  5.2369543117535033e-01  5.2260696751662816e-01  5.2151563050674132e-01  5.2042331883760296e-01  5.1932827178390573e-01  5.1822564385641512e-01  5.1710789369970778e-01  5.1596533133707811e-01  5.1478694503438993e-01  5.1356146436674210e-01  5.1227850272775932e-01  5.1092956875406570e-01  5.0950874643774713e-01  5.0801290116070330e-01  5.0644132732429026e-01  5.0479474592574614e-01  5.0307340662103373e-01  5.0127370792845005e-01  4.9938218106931753e-01  4.9736528094085081e-01  4.9515304730373016e-01  4.9261740009310351e-01  4.8954530719643258e-01  4.8562502564895998e-01  4.8043753204165812e-01  4.7352322638737532e-01  4.6434880499670361e-01  4.5271182742480398e-01  4.4031553170673410e-01  4.1829173917218415e-01  3.7349124232036318e-01  5.3361354643953940e-01  6.6139835358356358e-01  6.1298178044989871e-01  5.3687855044114408e-01  3.9715519284900286e-01  4.6729276786292490e-01  4.7471934414917227e-01  4.8172155620407170e-01  4.8883687673714354e-01  4.9416332369077504e-01  4.9782736652792314e-01  5.0024056440021525e-01  5.0173637330343290e-01  5.0263158269878072e-01  5.0316742085616961e-01  5.0350787785974482e-01  5.0375419786565212e-01  5.0396377344195586e-01  5.0416710736688986e-01  5.0437969814210315e-01  5.0460918635205521e-01  5.0485909151533470e-01  5.0513051313006230e-01  5.0542280756856428e-01  5.0573386323325220e-01  5.0606031161031750e-01  5.0639783092904933e-01  5.0674158445658135e-01  5.0708675522800062e-01  5.0742908240444917e-01  5.0776527596187915e-01  5.0809318690405403e-01  5.0841161307128457e-01  5.0871956820810382e-01  5.0901465714026595e-01  5.0928984397672283e-01  5.0952737082072797e-01  5.0968826881226470e-01  5.0969589067578824e-01  5.0941479007586965e-01  5.0862707476480151e-01  5.0702569616679338e-01  5.0421952757292432e-01  4.9982459462466589e-01  4.9344140124791530e-01  4.8522959504429131e-01  4.7684400301030350e-01  4.5891861825666086e-01  4.2815597229059699e-01  5.9948751090645724e-01  7.4692260157932799e-01  6.1805986107228761e-01  5.3412822501140311e-01  3.9635148613513110e-01  4.7452750897906543e-01  4.7494951416308201e-01  4.8128680104142008e-01  4.8891301591114245e-01  4.9408402812902547e-01  4.9772419302007120e-01  5.0010548602132077e-01  5.0154224476161668e-01  5.0235275417535019e-01  5.0277859779769551e-01  5.0298846556015042e-01  5.0308654989735990e-01  5.0313187957536554e-01  5.0315563377893158e-01  5.0317355353253879e-01  5.0319349620769072e-01  5.0321937082958168e-01  5.0325286143007120e-01  5.0329400000533442e-01  5.0334127032744302e-01  5.0339164980439255e-01  5.0344081806913499e-01  5.0348362484878262e-01  5.0351477845099801e-01  5.0352959760517080e-01  5.0352460621479156e-01  5.0349777212705682e-01  5.0344825428721462e-01  5.0337552471515035e-01  5.0327756589314510e-01  5.0314748211731930e-01  5.0296733689940243e-01  5.0269778924090014e-01  5.0226220641406749e-01  5.0152720121930461e-01  5.0028208880730973e-01  4.9823837491154416e-01  4.9504131496784848e-01  4.9037188101635104e-01  4.8392204002756140e-01  4.7596238527204432e-01  4.6833216600682182e-01  4.5116305141069135e-01  4.2014977982499258e-01  5.8879321321033196e-01  7.2575119786004361e-01  6.2237993748626164e-01  5.3650520513317634e-01  3.9837897929768734e-01  4.7600182214356818e-01  4.7245194671813578e-01  4.7972586932086547e-01  4.8727646699538940e-01  4.9203151781069271e-01  4.9562675288469277e-01  4.9795384155169270e-01  4.9937096882397386e-01  5.0017090013602394e-01  5.0059042037013746e-01  5.0079635303909009e-01  5.0089156721919925e-01  5.0093479656078266e-01  5.0095726093708060e-01  5.0097514569603330e-01  5.0099716537207684e-01  5.0102844674167857e-01  5.0107209655760232e-01  5.0112952659841681e-01  5.0120025508702781e-01  5.0128168576839705e-01  5.0136920811475927e-01  5.0145679645624941e-01  5.0153805790677075e-01  5.0160743061506596e-01  5.0166110605911474e-01  5.0169734311424363e-01  5.0171605356124904e-01  5.0171764790312234e-01  5.0170097771117861e-01  5.0165980310977976e-01  5.0157664704389138e-01  5.0141267568425318e-01  5.0109242488956895e-01  5.0048556306804848e-01  4.9938850220914405e-01  4.9752672929607339e-01  4.9457000507473148e-01  4.9023342297915817e-01  4.8425103528316621e-01  4.7692429409914699e-01  4.7003804484897882e-01  4.5384066296681602e-01  4.2378331406229691e-01  5.9398658981528707e-01  7.3423923006767122e-01  6.2541165992643521e-01  5.3864422907137388e-01  3.9975030893904073e-01  4.7654754072080685e-01  4.7203884967243265e-01  4.7998538325149132e-01  4.8695360406765020e-01  4.9148314551758410e-01  4.9507188696676052e-01  4.9733017339927982e-01  4.9872048042637263e-01  4.9949262190104560e-01  4.9988795966023064e-01  5.0006908795716432e-01  5.0013803125037926e-01  5.0015342723924039e-01  5.0014690920328186e-01  5.0013568988028545e-01  5.0013007525835895e-01  5.0013720186813204e-01  5.0016228947170804e-01  5.0020848404037066e-01  5.0027606205373953e-01  5.0036173267243678e-01  5.0045862438512845e-01  5.0055732623171423e-01  5.0064788473171862e-01  5.0072206690263976e-01  5.0077494543038237e-01  5.0080522415553930e-01  5.0081432931414516e-01  5.0080459970034896e-01  5.0077670312782618e-01  5.0072583888901856e-01  5.0063559705634297e-01  5.0046809590905672e-01  5.0014924458374677e-01  4.9955141499559680e-01  4.9847637913036907e-01  4.9665929886742294e-01  4.9378488590196695e-01  4.8958848677322025e-01  4.8382265276316400e-01  4.7680807512527551e-01  4.7028632116692831e-01  4.5456001196929036e-01  4.2482559988297042e-01  5.9549917064692803e-01  7.3588301390027666e-01  6.2781981572663881e-01  5.4043500997560867e-01  4.0061360352700731e-01  4.7703497933334749e-01  4.7231291423554933e-01  4.8025371856534149e-01  4.8677437212036895e-01  4.9130034148117457e-01  4.9485379723462658e-01  4.9705385244618855e-01  4.9842728333894970e-01  4.9917817292492783e-01  4.9955727350627560e-01  4.9972006426439153e-01  4.9976874266406918e-01  4.9976153617331731e-01  4.9973073084916342e-01  4.9969508662428996e-01  4.9966739738998439e-01  4.9965800632452567e-01  4.9967563211004878e-01  4.9972633581469450e-01  4.9981155493049673e-01  4.9992647745761082e-01  5.0005976635987481e-01  5.0019554869628347e-01  5.0031747930428039e-01  5.0041315374700124e-01  5.0047669879651635e-01  5.0050864062266021e-01  5.0051369579647642e-01  5.0049765470661867e-01  5.0046397510844920e-01  5.0040971411893320e-01  5.0031951716112799e-01  5.0015612037875690e-01  4.9984613275844308e-01  4.9926340769547511e-01  4.9821286032038048e-01  4.9643548151567513e-01  4.9362505441266530e-01  4.8952905433812610e-01  4.8391161309946035e-01  4.7710602121550089e-01  4.7083381561032717e-01  4.5546272636673268e-01  4.2606372003439835e-01  5.9738322063918292e-01  7.3827494752802436e-01  6.2964587719444365e-01  5.4181710008581185e-01  4.0124786800668588e-01  4.7757090011706310e-01  4.7267194369754217e-01  4.8046561283410072e-01  4.8681993234080395e-01  4.9136390634311994e-01  4.9485162482090045e-01  4.9702084983803579e-01  4.9838298587462443e-01  4.9911710540625953e-01  4.9948184656322497e-01  4.9962570920280996e-01  4.9965178463052368e-01  4.9961741147070382e-01  4.9955577886700953e-01  4.9948777434084024e-01  4.9942988860672183e-01  4.9939759189095373e-01  4.9940571953625151e-01  4.9946563826679247e-01  4.9958105212752907e-01  4.9974446283139229e-01  4.9993602168751838e-01  5.0012760999225281e-01  5.0029163368390150e-01  5.0040981934633932e-01  5.0047692615349793e-01  5.0049859760046167e-01  5.0048608959290297e-01  5.0045084465079770e-01  5.0040009775541738e-01  5.0033283949380725e-01  5.0023432625875441e-01  5.0006721965205092e-01  4.9975797625916463e-01  4.9918082225688859e-01  4.9814222742353315e-01  4.9638665735411769e-01  4.9361378464521710e-01  4.8957961259985844e-01  4.8405722449040478e-01  4.7739160070156178e-01  4.7129550818737831e-01  4.5619167876287964e-01  4.2705053205689247e-01  5.9890689769831718e-01  7.4027005450847072e-01  6.3100728939468087e-01  5.4285492509087074e-01  4.0167967846898900e-01  4.7796895148767377e-01  4.7289823469719983e-01  4.8060944618807888e-01  4.8690186489612530e-01  4.9142626092551916e-01  4.9487077237688032e-01  4.9703597886874251e-01  4.9839275181871534e-01  4.9911888477831556e-01  4.9947459671491234e-01  4.9960308572191503e-01  4.9960751363995992e-01  4.9954361904596228e-01  4.9944536562127306e-01  4.9933610146296531e-01  4.9923734471313957e-01  4.9917279254841396e-01  4.9916805707835038e-01  4.9924420217099791e-01  4.9940994906945418e-01  4.9965353196836443e-01  4.9993851023898650e-01  5.0021307994377151e-01  5.0043031723836184e-01  5.0056568075190977e-01  5.0062018305336065e-01  5.0061174865850133e-01  5.0056349883431039e-01  5.0049501207624514e-01  5.0041755136922184e-01  5.0033111233019034e-01  5.0022028364938487e-01  5.0004645345336640e-01  4.9973490748442634e-01  4.9915929950342292e-01  4.9812657440808517e-01  4.9638324026925912e-01  4.9363301031998896e-01  4.8963830861229946e-01  4.8417976121503897e-01  4.7761290665619904e-01  4.7164848100540407e-01  4.5675550092592804e-01  4.2783090648609934e-01  6.0015285558500353e-01  7.4195131967317773e-01  6.3201676572980681e-01  5.4363459891704280e-01  4.0197346988291605e-01  4.7826269173272673e-01  4.7305537589843588e-01  4.8072881369622572e-01  4.8697615505118019e-01  4.9147798666328202e-01  4.9490843780228916e-01  4.9707674194854734e-01  4.9843147879387462e-01  4.9915588745433853e-01  4.9950605975584600e-01  4.9962148961408132e-01  4.9960363631386623e-01  4.9950556905489568e-01  4.9936116673356029e-01  4.9919552046933646e-01  4.9903651872816168e-01  4.9892093080146960e-01  4.9889244223321938e-01  4.9898994138431957e-01  4.9923466720539406e-01  4.9960852556372687e-01  5.0004066127021274e-01  5.0043190117602954e-01  5.0070369261532732e-01  5.0083124780401378e-01  5.0083716995382888e-01  5.0076521187590961e-01  5.0065718065426679e-01  5.0054168981502800e-01  5.0043179219741429e-01  5.0032547376480929e-01  5.0020409754151085e-01  5.0002602517849304e-01  4.9971430677228268e-01  4.9914135716045360e-01  4.9811402328753723e-01  4.9638011076265343e-01  4.9364634039722938e-01  4.8968021728997846e-01  4.8426880458041599e-01  4.7777673021233152e-01  4.7191625840496210e-01  4.5719329470262665e-01  4.2845033739182214e-01  6.0117129276305092e-01  7.4337488756567816e-01  6.3276659388089729e-01  5.4422193420919773e-01  4.0217329155598541e-01  4.7848138805901108e-01  4.7316549470356767e-01  4.8081995133887534e-01  4.8703251198863257e-01  4.9152462824522059e-01  4.9495417105923917e-01  4.9712741806574606e-01  4.9848662773313540e-01  4.9921605147268194e-01  4.9956639206528497e-01  4.9967407978834583e-01  4.9963680435848051e-01  4.9950323120430545e-01  4.9930484628059596e-01  4.9906531549108640e-01  4.9882042485613426e-01  4.9862479679159649e-01  4.9854996455455247e-01  4.9866946215665287e-01  4.9903752930412998e-01  4.9962647098076879e-01  5.0028926610312752e-01  5.0083009312980886e-01  5.0112522755901179e-01  5.0117764161372558e-01  5.0106707406153705e-01  5.0088381475261579e-01  5.0069227417110296e-01  5.0052455998813405e-01  5.0038780638061753e-01  5.0027171161622608e-01  5.0015048693173236e-01  4.9997751840633270e-01  4.9967292492168053e-01  4.9910779046203291e-01  4.9808890846924370e-01  4.9636525092641981e-01  4.9364609224108857e-01  4.8970316333879893e-01  4.8432904931529497e-01  4.7789591996648001e-01  4.7211955259693167e-01  4.5753442773909109e-01  4.2894241593483362e-01  6.0199860424782614e-01  7.4456638282976839e-01  6.3332470332189550e-01  5.4466528545443127e-01  4.0231242885778346e-01  4.7865015649177378e-01  4.7324798996765643e-01  4.8089505232201962e-01  4.8708356855858576e-01  4.9157478971577057e-01  4.9500860581957079e-01  4.9719120973277614e-01  4.9856263688980024e-01  4.9930493328241249e-01  4.9966503403956358e-01  4.9977608513068544e-01  4.9973039089327931e-01  4.9957003770747904e-01  4.9931952704340371e-01  4.9899500944845626e-01  4.9864004168966591e-01  4.9832242162867291e-01  4.9815502038744669e-01  4.9827954874090979e-01  4.9883773159014294e-01  4.9978813765707664e-01  5.0080659706322761e-01  5.0149819205940172e-01  5.0169883208214816e-01  5.0152905308749796e-01  5.0119410901729367e-01  5.0084983793138094e-01  5.0056998814255049e-01  5.0037009387110709e-01  5.0023521727312237e-01  5.0013740207944968e-01  5.0003963899036630e-01  4.9988943709104111e-01  4.9960456900212602e-01  4.9905581582394259e-01  4.9805083414935886e-01  4.9634029824631992e-01  4.9363610178790496e-01  4.8971375271794582e-01  4.8437065365632426e-01  4.7798511624771722e-01  4.7227747161778871e-01  4.5780371960160154e-01  4.2933551135366715e-01  6.0266815707568311e-01  7.4555357582382564e-01  6.3373692635405710e-01  5.4499646734759366e-01  4.0241035597916475e-01  4.7878225077537978e-01  4.7331246790468307e-01  4.8095972352927369e-01  4.8713247456528214e-01  4.9162800812158614e-01  4.9507039664556157e-01  4.9726801674570242e-01  4.9865924078486762e-01  4.9942442586967328e-01  4.9980880997980731e-01  4.9994268526417696e-01  4.9991305168607125e-01  4.9975382071574614e-01  4.9947651352460420e-01  4.9908181702883725e-01  4.9860896490075718e-01  4.9810982336079368e-01  4.9776158440418650e-01  4.9782764681464720e-01  4.9868598868579928e-01  5.0025659071775153e-01  5.0180490561385960e-01  5.0254506319023318e-01  5.0234161850922288e-01  5.0167805765479312e-01  5.0099205240182765e-01  5.0047652845601542e-01  5.0016026310421491e-01  4.9999721247465434e-01  4.9992821565339174e-01  4.9989932439370871e-01  4.9986161074048102e-01  4.9975906535852183e-01  4.9951014511594627e-01  4.9898798089088997e-01  4.9800302401803775e-01  4.9630881899928092e-01  4.9362035613186744e-01  4.8971676855004720e-01  4.8439973994170066e-01  4.7805253608206955e-01  4.7240041175560321e-01  4.5801502781865905e-01  4.2964595800617367e-01  6.0319978945724750e-01  7.4635148241291871e-01  6.3403358532407494e-01  5.4523634186355674e-01  4.0247768317783361e-01  4.7888358545736787e-01  4.7336224972711799e-01  4.8101418775150684e-01  4.8717735029732173e-01  4.9168046579628760e-01  4.9513465063002332e-01  4.9735146909516170e-01  4.9876867333366021e-01  4.9956693199721031e-01  4.9999212770097184e-01  5.0017424975926761e-01  5.0019822401502334e-01  5.0009213326327717e-01  4.9985440887139632e-01  4.9946722969185248e-01  4.9893841325464039e-01  4.9825718912988493e-01  4.9766162902973349e-01  4.9751594545753575e-01  4.9873618916342355e-01  5.0126501861867412e-01  5.0365765579204858e-01  5.0408100305393788e-01  5.0275129080458592e-01  5.0122056240549806e-01  5.0012048981217583e-01  4.9955111882966741e-01  4.9934983806421546e-01  4.9935764777476804e-01  4.9945337809339924e-01  4.9956020367816034e-01  4.9962508361202701e-01  4.9959613468105679e-01  4.9939840543063213e-01  4.9891145080387611e-01  4.9795108805825522e-01  4.9627516980419772e-01  4.9360237746699648e-01  4.8971539442042150e-01  4.8441967987253137e-01  4.7810241267339071e-01  4.7249356343100662e-01  4.5817562114629357e-01  4.2988282439137487e-01  6.0360507153837029e-01  7.4696816212200712e-01  6.3423483219909860e-01  5.4539882430261466e-01  4.0252008817305213e-01  4.7895645193296804e-01  4.7339771314233958e-01  4.8105632727101977e-01  4.8721418590352139e-01  4.9172591050336112e-01  4.9519248669678168e-01  4.9742911803687745e-01  4.9887409633831775e-01  4.9971021957581430e-01  5.0018650630755190e-01  5.0043677532922426e-01  5.0055050833052561e-01  5.0056003127285675e-01  5.0046565908155749e-01  5.0024460862871911e-01  4.9985622782841360e-01  4.9917292170656258e-01  4.9829227356156131e-01  4.9736050202309728e-01  4.9842800509015694e-01  5.0288855558949674e-01  5.0697563771209042e-01  5.0652486457651291e-01  5.0278109374569324e-01  4.9947980735778225e-01  4.9829710497367130e-01  4.9799249125656114e-01  4.9816759170092650e-01  4.9851401727316658e-01  4.9887443840737256e-01  4.9917237388219432e-01  4.9936896144401760e-01  4.9942803197410601e-01  4.9928803119970461e-01  4.9883873538565421e-01  4.9790331569446877e-01  4.9624483115118073e-01  4.9358585157565732e-01  4.8971228872501876e-01  4.8443270961285029e-01  4.7813718138770889e-01  4.7255964765331043e-01  4.5828938696241217e-01  4.3005111569742210e-01  6.0389047355818648e-01  7.4740758192663159e-01  6.3435379938759695e-01  5.4549304967663192e-01  4.0254056894709966e-01  4.7900154608311257e-01  4.7341811612628859e-01  4.8108334904973160e-01  4.8723835337852051e-01  4.9175714319464658e-01  4.9523319113118969e-01  4.9748505493231121e-01  4.9895189091134018e-01  4.9981910411205388e-01  5.0033974114193414e-01  5.0065370593673519e-01  5.0086002789039052e-01  5.0100597388975809e-01  5.0111513537796981e-01  5.0119636723071592e-01  5.0123531493319173e-01  5.0114769361777589e-01  5.0103381577184081e-01  5.0063574891802942e-01  4.9987701157358283e-01  5.0620703186497595e-01  5.1624438831599373e-01  5.1421614511331803e-01  5.0046340013304991e-01  4.9731383801156392e-01  4.9565804221545939e-01  4.9616289075381931e-01  4.9693928372151425e-01  4.9771327385097053e-01  4.9836050490304340e-01  4.9884577397833185e-01  4.9916258720239748e-01  4.9929768948974712e-01  4.9920533739600287e-01  4.9878589640782900e-01  4.9786950548305697e-01  4.9622379630700331e-01  4.9357448431856077e-01  4.8970984016652219e-01  4.8444054831064698e-01  4.7815843551937243e-01  4.7260021424123078e-01  4.5835846510642791e-01  4.3015357966332018e-01  6.0405943679795970e-01  7.4767139727107390e-01  6.3439805450913545e-01  5.4552427821924210e-01  4.0254050085776188e-01  4.7901894652724047e-01  4.7342260995764551e-01  4.8109298756638647e-01  4.8724619666237595e-01  4.9176838208098611e-01  4.9524786907580387e-01  4.9750547637167170e-01  4.9898041664655868e-01  4.9985926731453884e-01  5.0039682248456840e-01  5.0073580508387527e-01  5.0098007011766421e-01  5.0118529176658200e-01  5.0139031065065720e-01  5.0163294261687330e-01  5.0196826837817465e-01  5.0250686816283008e-01  5.0370787709280940e-01  5.0581550124764241e-01  5.0263513167400831e-01  5.2667294159354572e-01  5.2352798368210440e-01  5.2489517731918534e-01  5.2174045374924261e-01  4.9252882620996358e-01  4.9417394136960341e-01  4.9510553640660626e-01  4.9631972955067899e-01  4.9734606661688596e-01  4.9813846641825354e-01  4.9871155650651372e-01  4.9908129106334809e-01  4.9924829261521797e-01  4.9917509913816382e-01  4.9876719780505968e-01  4.9785792035756848e-01  4.9621689378175377e-01  4.9357113948487380e-01  4.8970981058570712e-01  4.8444438357123326e-01  4.7816716996309228e-01  4.7261613343996950e-01  4.5838397940490261e