<?xml version="1.0"?>
<VTKFile type="UnstructuredGrid"  version="0.1"  >
<UnstructuredGrid>
<Piece  NumberOfPoints="1617" NumberOfCells="3072">
<Points>
<DataArray  type="Float64"  NumberOfComponents="3"  format="ascii">0 0 0  0.03125 0 0  0.0625 0 0  0.09375 0 0  0.125 0 0  0.15625 0 0  0.1875 0 0  0.21875 0 0  0.25 0 0  0.28125 0 0  0.3125 0 0  0.34375 0 0  0.375 0 0  0.40625 0 0  0.4375 0 0  0.46875 0 0  0.5 0 0  0.53125 0 0  0.5625 0 0  0.59375 0 0  0.625 0 0  0.65625 0 0  0.6875 0 0  0.71875 0 0  0.75 0 0  0.78125 0 0  0.8125 0 0  0.84375 0 0  0.875 0 0  0.90625 0 0  0.9375 0 0  0.96875 0 0  1 0 0  1.03125 0 0  1.0625 0 0  1.09375 0 0  1.125 0 0  1.15625 0 0  1.1875 0 0  1.21875 0 0  1.25 0 0  1.28125 0 0  1.3125 0 0  1.34375 0 0  1.375 0 0  1.40625 0 0  1.4375 0 0  1.46875 0 0  1.5 0 0  0 0.03125 0  0.03125 0.03125 0  0.0625 0.03125 0  0.09375 0.03125 0  0.125 0.03125 0  0.15625 0.03125 0  0.1875 0.03125 0  0.21875 0.03125 0  0.25 0.03125 0  0.28125 0.03125 0  0.3125 0.03125 0  0.34375 0.03125 0  0.375 0.03125 0  0.40625 0.03125 0  0.4375 0.03125 0  0.46875 0.03125 0  0.5 0.03125 0  0.53125 0.03125 0  0.5625 0.03125 0  0.59375 0.03125 0  0.625 0.03125 0  0.65625 0.03125 0  0.6875 0.03125 0  0.71875 0.03125 0  0.75 0.03125 0  0.78125 0.03125 0  0.8125 0.03125 0  0.84375 0.03125 0  0.875 0.03125 0  0.90625 0.03125 0  0.9375 0.03125 0  0.96875 0.03125 0  1 0.03125 0  1.03125 0.03125 0  1.0625 0.03125 0  1.09375 0.03125 0  1.125 0.03125 0  1.15625 0.03125 0  1.1875 0.03125 0  1.21875 0.03125 0  1.25 0.03125 0  1.28125 0.03125 0  1.3125 0.03125 0  1.34375 0.03125 0  1.375 0.03125 0  1.40625 0.03125 0  1.4375 0.03125 0  1.46875 0.03125 0  1.5 0.03125 0  0 0.0625 0  0.03125 0.0625 0  0.0625 0.0625 0  0.09375 0.0625 0  0.125 0.0625 0  0.15625 0.0625 0  0.1875 0.0625 0  0.21875 0.0625 0  0.25 0.0625 0  0.28125 0.0625 0  0.3125 0.0625 0  0.34375 0.0625 0  0.375 0.0625 0  0.40625 0.0625 0  0.4375 0.0625 0  0.46875 0.0625 0  0.5 0.0625 0  0.53125 0.0625 0  0.5625 0.0625 0  0.59375 0.0625 0  0.625 0.0625 0  0.65625 0.0625 0  0.6875 0.0625 0  0.71875 0.0625 0  0.75 0.0625 0  0.78125 0.0625 0  0.8125 0.0625 0  0.84375 0.0625 0  0.875 0.0625 0  0.90625 0.0625 0  0.9375 0.0625 0  0.96875 0.0625 0  1 0.0625 0  1.03125 0.0625 0  1.0625 0.0625 0  1.09375 0.0625 0  1.125 0.0625 0  1.15625 0.0625 0  1.1875 0.0625 0  1.21875 0.0625 0  1.25 0.0625 0  1.28125 0.0625 0  1.3125 0.0625 0  1.34375 0.0625 0  1.375 0.0625 0  1.40625 0.0625 0  1.4375 0.0625 0  1.46875 0.0625 0  1.5 0.0625 0  0 0.09375 0  0.03125 0.09375 0  0.0625 0.09375 0  0.09375 0.09375 0  0.125 0.09375 0  0.15625 0.09375 0  0.1875 0.09375 0  0.21875 0.09375 0  0.25 0.09375 0  0.28125 0.09375 0  0.3125 0.09375 0  0.34375 0.09375 0  0.375 0.09375 0  0.40625 0.09375 0  0.4375 0.09375 0  0.46875 0.09375 0  0.5 0.09375 0  0.53125 0.09375 0  0.5625 0.09375 0  0.59375 0.09375 0  0.625 0.09375 0  0.65625 0.09375 0  0.6875 0.09375 0  0.71875 0.09375 0  0.75 0.09375 0  0.78125 0.09375 0  0.8125 0.09375 0  0.84375 0.09375 0  0.875 0.09375 0  0.90625 0.09375 0  0.9375 0.09375 0  0.96875 0.09375 0  1 0.09375 0  1.03125 0.09375 0  1.0625 0.09375 0  1.09375 0.09375 0  1.125 0.09375 0  1.15625 0.09375 0  1.1875 0.09375 0  1.21875 0.09375 0  1.25 0.09375 0  1.28125 0.09375 0  1.3125 0.09375 0  1.34375 0.09375 0  1.375 0.09375 0  1.40625 0.09375 0  1.4375 0.09375 0  1.46875 0.09375 0  1.5 0.09375 0  0 0.125 0  0.03125 0.125 0  0.0625 0.125 0  0.09375 0.125 0  0.125 0.125 0  0.15625 0.125 0  0.1875 0.125 0  0.21875 0.125 0  0.25 0.125 0  0.28125 0.125 0  0.3125 0.125 0  0.34375 0.125 0  0.375 0.125 0  0.40625 0.125 0  0.4375 0.125 0  0.46875 0.125 0  0.5 0.125 0  0.53125 0.125 0  0.5625 0.125 0  0.59375 0.125 0  0.625 0.125 0  0.65625 0.125 0  0.6875 0.125 0  0.71875 0.125 0  0.75 0.125 0  0.78125 0.125 0  0.8125 0.125 0  0.84375 0.125 0  0.875 0.125 0  0.90625 0.125 0  0.9375 0.125 0  0.96875 0.125 0  1 0.125 0  1.03125 0.125 0  1.0625 0.125 0  1.09375 0.125 0  1.125 0.125 0  1.15625 0.125 0  1.1875 0.125 0  1.21875 0.125 0  1.25 0.125 0  1.28125 0.125 0  1.3125 0.125 0  1.34375 0.125 0  1.375 0.125 0  1.40625 0.125 0  1.4375 0.125 0  1.46875 0.125 0  1.5 0.125 0  0 0.15625 0  0.03125 0.15625 0  0.0625 0.15625 0  0.09375 0.15625 0  0.125 0.15625 0  0.15625 0.15625 0  0.1875 0.15625 0  0.21875 0.15625 0  0.25 0.15625 0  0.28125 0.15625 0  0.3125 0.15625 0  0.34375 0.15625 0  0.375 0.15625 0  0.40625 0.15625 0  0.4375 0.15625 0  0.46875 0.15625 0  0.5 0.15625 0  0.53125 0.15625 0  0.5625 0.15625 0  0.59375 0.15625 0  0.625 0.15625 0  0.65625 0.15625 0  0.6875 0.15625 0  0.71875 0.15625 0  0.75 0.15625 0  0.78125 0.15625 0  0.8125 0.15625 0  0.84375 0.15625 0  0.875 0.15625 0  0.90625 0.15625 0  0.9375 0.15625 0  0.96875 0.15625 0  1 0.15625 0  1.03125 0.15625 0  1.0625 0.15625 0  1.09375 0.15625 0  1.125 0.15625 0  1.15625 0.15625 0  1.1875 0.15625 0  1.21875 0.15625 0  1.25 0.15625 0  1.28125 0.15625 0  1.3125 0.15625 0  1.34375 0.15625 0  1.375 0.15625 0  1.40625 0.15625 0  1.4375 0.15625 0  1.46875 0.15625 0  1.5 0.15625 0  0 0.1875 0  0.03125 0.1875 0  0.0625 0.1875 0  0.09375 0.1875 0  0.125 0.1875 0  0.15625 0.1875 0  0.1875 0.1875 0  0.21875 0.1875 0  0.25 0.1875 0  0.28125 0.1875 0  0.3125 0.1875 0  0.34375 0.1875 0  0.375 0.1875 0  0.40625 0.1875 0  0.4375 0.1875 0  0.46875 0.1875 0  0.5 0.1875 0  0.53125 0.1875 0  0.5625 0.1875 0  0.59375 0.1875 0  0.625 0.1875 0  0.65625 0.1875 0  0.6875 0.1875 0  0.71875 0.1875 0  0.75 0.1875 0  0.78125 0.1875 0  0.8125 0.1875 0  0.84375 0.1875 0  0.875 0.1875 0  0.90625 0.1875 0  0.9375 0.1875 0  0.96875 0.1875 0  1 0.1875 0  1.03125 0.1875 0  1.0625 0.1875 0  1.09375 0.1875 0  1.125 0.1875 0  1.15625 0.1875 0  1.1875 0.1875 0  1.21875 0.1875 0  1.25 0.1875 0  1.28125 0.1875 0  1.3125 0.1875 0  1.34375 0.1875 0  1.375 0.1875 0  1.40625 0.1875 0  1.4375 0.1875 0  1.46875 0.1875 0  1.5 0.1875 0  0 0.21875 0  0.03125 0.21875 0  0.0625 0.21875 0  0.09375 0.21875 0  0.125 0.21875 0  0.15625 0.21875 0  0.1875 0.21875 0  0.21875 0.21875 0  0.25 0.21875 0  0.28125 0.21875 0  0.3125 0.21875 0  0.34375 0.21875 0  0.375 0.21875 0  0.40625 0.21875 0  0.4375 0.21875 0  0.46875 0.21875 0  0.5 0.21875 0  0.53125 0.21875 0  0.5625 0.21875 0  0.59375 0.21875 0  0.625 0.21875 0  0.65625 0.21875 0  0.6875 0.21875 0  0.71875 0.21875 0  0.75 0.21875 0  0.78125 0.21875 0  0.8125 0.21875 0  0.84375 0.21875 0  0.875 0.21875 0  0.90625 0.21875 0  0.9375 0.21875 0  0.96875 0.21875 0  1 0.21875 0  1.03125 0.21875 0  1.0625 0.21875 0  1.09375 0.21875 0  1.125 0.21875 0  1.15625 0.21875 0  1.1875 0.21875 0  1.21875 0.21875 0  1.25 0.21875 0  1.28125 0.21875 0  1.3125 0.21875 0  1.34375 0.21875 0  1.375 0.21875 0  1.40625 0.21875 0  1.4375 0.21875 0  1.46875 0.21875 0  1.5 0.21875 0  0 0.25 0  0.03125 0.25 0  0.0625 0.25 0  0.09375 0.25 0  0.125 0.25 0  0.15625 0.25 0  0.1875 0.25 0  0.21875 0.25 0  0.25 0.25 0  0.28125 0.25 0  0.3125 0.25 0  0.34375 0.25 0  0.375 0.25 0  0.40625 0.25 0  0.4375 0.25 0  0.46875 0.25 0  0.5 0.25 0  0.53125 0.25 0  0.5625 0.25 0  0.59375 0.25 0  0.625 0.25 0  0.65625 0.25 0  0.6875 0.25 0  0.71875 0.25 0  0.75 0.25 0  0.78125 0.25 0  0.8125 0.25 0  0.84375 0.25 0  0.875 0.25 0  0.90625 0.25 0  0.9375 0.25 0  0.96875 0.25 0  1 0.25 0  1.03125 0.25 0  1.0625 0.25 0  1.09375 0.25 0  1.125 0.25 0  1.15625 0.25 0  1.1875 0.25 0  1.21875 0.25 0  1.25 0.25 0  1.28125 0.25 0  1.3125 0.25 0  1.34375 0.25 0  1.375 0.25 0  1.40625 0.25 0  1.4375 0.25 0  1.46875 0.25 0  1.5 0.25 0  0 0.28125 0  0.03125 0.28125 0  0.0625 0.28125 0  0.09375 0.28125 0  0.125 0.28125 0  0.15625 0.28125 0  0.1875 0.28125 0  0.21875 0.28125 0  0.25 0.28125 0  0.28125 0.28125 0  0.3125 0.28125 0  0.34375 0.28125 0  0.375 0.28125 0  0.40625 0.28125 0  0.4375 0.28125 0  0.46875 0.28125 0  0.5 0.28125 0  0.53125 0.28125 0  0.5625 0.28125 0  0.59375 0.28125 0  0.625 0.28125 0  0.65625 0.28125 0  0.6875 0.28125 0  0.71875 0.28125 0  0.75 0.28125 0  0.78125 0.28125 0  0.8125 0.28125 0  0.84375 0.28125 0  0.875 0.28125 0  0.90625 0.28125 0  0.9375 0.28125 0  0.96875 0.28125 0  1 0.28125 0  1.03125 0.28125 0  1.0625 0.28125 0  1.09375 0.28125 0  1.125 0.28125 0  1.15625 0.28125 0  1.1875 0.28125 0  1.21875 0.28125 0  1.25 0.28125 0  1.28125 0.28125 0  1.3125 0.28125 0  1.34375 0.28125 0  1.375 0.28125 0  1.40625 0.28125 0  1.4375 0.28125 0  1.46875 0.28125 0  1.5 0.28125 0  0 0.3125 0  0.03125 0.3125 0  0.0625 0.3125 0  0.09375 0.3125 0  0.125 0.3125 0  0.15625 0.3125 0  0.1875 0.3125 0  0.21875 0.3125 0  0.25 0.3125 0  0.28125 0.3125 0  0.3125 0.3125 0  0.34375 0.3125 0  0.375 0.3125 0  0.40625 0.3125 0  0.4375 0.3125 0  0.46875 0.3125 0  0.5 0.3125 0  0.53125 0.3125 0  0.5625 0.3125 0  0.59375 0.3125 0  0.625 0.3125 0  0.65625 0.3125 0  0.6875 0.3125 0  0.71875 0.3125 0  0.75 0.3125 0  0.78125 0.3125 0  0.8125 0.3125 0  0.84375 0.3125 0  0.875 0.3125 0  0.90625 0.3125 0  0.9375 0.3125 0  0.96875 0.3125 0  1 0.3125 0  1.03125 0.3125 0  1.0625 0.3125 0  1.09375 0.3125 0  1.125 0.3125 0  1.15625 0.3125 0  1.1875 0.3125 0  1.21875 0.3125 0  1.25 0.3125 0  1.28125 0.3125 0  1.3125 0.3125 0  1.34375 0.3125 0  1.375 0.3125 0  1.40625 0.3125 0  1.4375 0.3125 0  1.46875 0.3125 0  1.5 0.3125 0  0 0.34375 0  0.03125 0.34375 0  0.0625 0.34375 0  0.09375 0.34375 0  0.125 0.34375 0  0.15625 0.34375 0  0.1875 0.34375 0  0.21875 0.34375 0  0.25 0.34375 0  0.28125 0.34375 0  0.3125 0.34375 0  0.34375 0.34375 0  0.375 0.34375 0  0.40625 0.34375 0  0.4375 0.34375 0  0.46875 0.34375 0  0.5 0.34375 0  0.53125 0.34375 0  0.5625 0.34375 0  0.59375 0.34375 0  0.625 0.34375 0  0.65625 0.34375 0  0.6875 0.34375 0  0.71875 0.34375 0  0.75 0.34375 0  0.78125 0.34375 0  0.8125 0.34375 0  0.84375 0.34375 0  0.875 0.34375 0  0.90625 0.34375 0  0.9375 0.34375 0  0.96875 0.34375 0  1 0.34375 0  1.03125 0.34375 0  1.0625 0.34375 0  1.09375 0.34375 0  1.125 0.34375 0  1.15625 0.34375 0  1.1875 0.34375 0  1.21875 0.34375 0  1.25 0.34375 0  1.28125 0.34375 0  1.3125 0.34375 0  1.34375 0.34375 0  1.375 0.34375 0  1
[...]
<PointData  Scalars="f_65"> 
<DataArray  type="Float64"  Name="f_65"  format="ascii">7.3614003738885186e-02  5.2292915113944949e-01  6.0386357853034012e-01  6.0919509396450311e-01  6.1820175945271372e-01  6.2202148666203605e-01  6.2170765437023268e-01  6.1859206602050609e-01  6.1384058847073708e-01  6.0828307672524795e-01  6.0238267371421317e-01  5.9636093092175702e-01  5.9031209783726002e-01  5.8427467247660270e-01  5.7826528767380625e-01  5.7229237167650748e-01  5.6636090671240380e-01  5.6047382827660319e-01  5.5463227918898106e-01  5.4883552542179093e-01  5.4308085197848033e-01  5.3736360740607336e-01  5.3167751022354359e-01  5.2601527747588750e-01  5.2036956001031387e-01  5.1473407789742043e-01  5.0910477060684256e-01  5.0348073889537004e-01  4.9786478553103530e-01  4.9226344593493360e-01  4.8668651261433982e-01  4.8114620689289639e-01  4.7565599350140553e-01  4.7022986858291821e-01  4.6487997657269325e-01  4.5961967885807531e-01  4.5445020000497466e-01  4.4939143978542495e-01  4.4438615017580174e-01  4.3948305174263019e-01  4.3434599531980261e-01  4.2856394911535495e-01  4.2263341962852613e-01  4.0502203999450997e-01  4.2172792035083895e-01  2.6478949232545324e-01  7.2558882906104316e-01  -7.9847200063032697e-01  2.5827538088416016e+00  9.8655335482492942e-03  3.8411617197742504e-01  4.5699272848751271e-01  4.5033560284041796e-01  4.6447646010289328e-01  4.7648289306453601e-01  4.8413662540803254e-01  4.8843609547290318e-01  4.9079904700339672e-01  4.9218725854109896e-01  4.9316079244933442e-01  4.9398423069542846e-01  4.9476494091391765e-01  4.9554225492976667e-01  4.9633024976755613e-01  4.9713485599458274e-01  4.9795966525056029e-01  4.9880757277831178e-01  4.9968100595000092e-01  5.0058168346890630e-01  5.0151022968431869e-01  5.0246580110302730e-01  5.0344584367945988e-01  5.0444607671362895e-01  5.0546075641505361e-01  5.0648320625723642e-01  5.0750652815951691e-01  5.0852435328062162e-01  5.0953147720140490e-01  5.1052425926980993e-01  5.1150072643967792e-01  5.1246042289749083e-01  5.1340398987660341e-01  5.1433281934896047e-01  5.1524796033893461e-01  5.1615065260064874e-01  5.1703690777236233e-01  5.1790304387068953e-01  5.1871113089839660e-01  5.1939557689041693e-01  5.1974323793791366e-01  5.1899218787045653e-01  5.1745840106745344e-01  5.0720736257170074e-01  5.1252733962955899e-01  4.3116698958072774e-01  6.4623517789270946e-01  -1.4585249406551840e-01  2.6653356480431420e+00  5.3617910962564796e-02  3.9434456254206596e-01  4.8281161278714635e-01  4.6096014039332356e-01  4.7560661662037335e-01  4.8833573991725210e-01  4.9584255679988820e-01  4.9975488780548333e-01  5.0160318970851858e-01  5.0238066147065830e-01  5.0269531188357164e-01  5.0283107284927708e-01  5.0290145113795881e-01  5.0294562058439496e-01  5.0297585667465228e-01  5.0299597711856359e-01  5.0300741268768678e-01  5.0301089410440925e-01  5.0300679987250096e-01  5.0299514709863025e-01  5.0297550748413433e-01  5.0294693703589555e-01  5.0290795584088221e-01  5.0285660035481650e-01  5.0279056054801652e-01  5.0270739953788024e-01  5.0260483134177925e-01  5.0248100586564970e-01  5.0233473758214675e-01  5.0216562114720287e-01  5.0197401556181442e-01  5.0176092509463055e-01  5.0152776036813507e-01  5.0127627011358233e-01  5.0100767725306816e-01  5.0072403075246874e-01  5.0042120122787503e-01  5.0010107310405927e-01  4.9971516977039820e-01  4.9923736107111460e-01  4.9835226564296925e-01  4.9661914249669964e-01  4.9369017948504379e-01  4.8368900691219019e-01  4.8817579680533896e-01  4.0762697243435059e-01  6.4585501427314929e-01  -1.8314749477451453e-01  2.4726358982479817e+00  5.5740733805884950e-02  3.8922729030175279e-01  4.8933499194084157e-01  4.5648909359175194e-01  4.7478314664403104e-01  4.8671077517271144e-01  4.9361105298223329e-01  4.9730675223368331e-01  4.9901418899376343e-01  4.9970510081571273e-01  4.9996753464946692e-01  5.0007427607098343e-01  5.0013235301036851e-01  5.0017694530315926e-01  5.0021855595136633e-01  5.0026027651411853e-01  5.0030332743717676e-01  5.0034851577819361e-01  5.0039651606462265e-01  5.0044782634701268e-01  5.0050263443269527e-01  5.0056066720052617e-01  5.0062106499611470e-01  5.0068233270384377e-01  5.0074241879130932e-01  5.0079895369975225e-01  5.0084962536738253e-01  5.0089259816964615e-01  5.0092683979507879e-01  5.0095224636524371e-01  5.0096954191897725e-01  5.0098003630966137e-01  5.0098526354100803e-01  5.0098687745772319e-01  5.0098576833603947e-01  5.0098352372002708e-01  5.0097563081457519e-01  5.0096317403509127e-01  5.0089967118049306e-01  5.0075366030068935e-01  5.0023611378696320e-01  4.9885957540933173e-01  4.9651913709867773e-01  4.8693169942082543e-01  4.9288872839746428e-01  4.1313188677806578e-01  6.5148640182772954e-01  -1.7705062954349152e-01  2.5218701635877956e+00  5.6782049278585940e-02  3.9113215398853202e-01  4.9312962132741189e-01  4.5553097004416576e-01  4.7633562482097019e-01  4.8661190393824655e-01  4.9338807384104511e-01  4.9705946483851382e-01  4.9870959856511260e-01  4.9938224736757558e-01  4.9963303098850159e-01  4.9973360075787548e-01  4.9978589156663666e-01  4.9982328442577340e-01  4.9985590500629506e-01  4.9988689295456490e-01  4.9991765306773717e-01  4.9994925207829283e-01  4.9998269015705082e-01  5.0001883551708726e-01  5.0005823180167519e-01  5.0010084519306608e-01  5.0014581166905170e-01  5.0019128433777738e-01  5.0023449185240931e-01  5.0027209983389953e-01  5.0030085299519411e-01  5.0031830869726779e-01  5.0032337036279539e-01  5.0031640616365014e-01  5.0029895623587817e-01  5.0027322463796176e-01  5.0024150839165049e-01  5.0020596335238121e-01  5.0016775695165705e-01  5.0012849579123742e-01  5.0008374894831864e-01  5.0003455122756979e-01  4.9993494111001230e-01  4.9975581971294675e-01  4.9920899963432808e-01  4.9783831193633582e-01  4.9551086231971531e-01  4.8619239071241921e-01  4.9223087183379532e-01  4.1356823219431332e-01  6.5153156646136290e-01  -1.7429026340234027e-01  2.5177487798490081e+00  5.7309269177092878e-02  3.9316926394189355e-01  4.9476369691810462e-01  4.5620968852268207e-01  4.7759578125552593e-01  4.8677057096017506e-01  4.9376606019378855e-01  4.9732128300191564e-01  4.9889417475824172e-01  4.9953265970866206e-01  4.9974887467408108e-01  4.9982089681797365e-01  4.9984453738535695e-01  4.9985393523096011e-01  4.9985970011825398e-01  4.9986551342142499e-01  4.9987330179564143e-01  4.9988476303572610e-01  4.9990162338622846e-01  4.9992558097413997e-01  4.9995796586775848e-01  4.9999925461606776e-01  5.0004853298722440e-01  5.0010310325989848e-01  5.0015848764668691e-01  5.0020908203236458e-01  5.0024943934860744e-01  5.0027574087663873e-01  5.0028675184433502e-01  5.0028382969968588e-01  5.0027013444147872e-01  5.0024955643349689e-01  5.0022575002354663e-01  5.0020173822572722e-01  5.0017908129030764e-01  5.0015941425333710e-01  5.0013808511426705e-01  5.0011585012759596e-01  5.0004632355138368e-01  4.9990111760168121e-01  4.9939180193814436e-01  4.9807304676841224e-01  4.9581240627800877e-01  4.8664260331327236e-01  4.9280550567039361e-01  4.1471027736556898e-01  6.5236959264970318e-01  -1.7163176677899375e-01  2.5218706967507059e+00  5.7594101738872097e-02  3.9433112674471948e-01  4.9554333079190521e-01  4.5661388650256962e-01  4.7789770909787233e-01  4.8676288644648763e-01  4.9393569638966350e-01  4.9736539782802514e-01  4.9893979479732276e-01  4.9958013205461255e-01  4.9979034586638632e-01  4.9985759306335092e-01  4.9987267098973104e-01  4.9987263936112469e-01  4.9986838616353979e-01  4.9986408632994073e-01  4.9986225812275076e-01  4.9986540346008912e-01  4.9987626597660678e-01  4.9989796652326396e-01  4.9993324612075030e-01  4.9998364539225326e-01  5.0004837916289702e-01  5.0012336115566436e-01  5.0020097912686090e-01  5.0027131403408931e-01  5.0032484569725177e-01  5.0035554258828518e-01  5.0036252209060705e-01  5.0034948677973667e-01  5.0032270613417418e-01  5.0028886125592620e-01  5.0025352750573437e-01  5.0022070621127057e-01  5.0019220713810431e-01  5.0016941741030607e-01  5.0014725091230949e-01  5.0012583014802914e-01  5.0005832716085896e-01  4.9991598205342280e-01  4.9940966156801819e-01  4.9810023648432045e-01  4.9584568050947003e-01  4.8674653263425588e-01  4.9290423634313490e-01  4.1519017961209187e-01  6.5258356778175675e-01  -1.7020218851973326e-01  2.5239710546100445e+00  5.7768607917191794e-02  3.9499869756585920e-01  4.9593974545625186e-01  4.5674877952318593e-01  4.7794962871988422e-01  4.8675338792778300e-01  4.9395634099102786e-01  4.9732701924719447e-01  4.9893579628182644e-01  4.9957798671478160e-01  4.9978927581851051e-01  4.9985637669306260e-01  4.9986759372795270e-01  4.9986267450008381e-01  4.9985197643514973e-01  4.9983991497070374e-01  4.9982979909882702e-01  4.9982487221826827e-01  4.9982946576350662e-01  4.9984932134263693e-01  4.9988972601606307e-01  4.9995481719173229e-01  5.0004481069232110e-01  5.0015362942157937e-01  5.0026790230847540e-01  5.0036928196932717e-01  5.0044059756244752e-01  5.0047270782344855e-01  5.0046703059174791e-01  5.0043280787636224e-01  5.0038217376665495e-01  5.0032614275122067e-01  5.0027260788248917e-01  5.0022623319310844e-01  5.0018847308157222e-01  5.0015986793021072e-01  5.0013440486176042e-01  5.0011130911194401e-01  5.0004304843568914e-01  4.9990058904422324e-01  4.9939330566901596e-01  4.9808746126768622e-01  4.9582840702369219e-01  4.8677302721658139e-01  4.9289950067010913e-01  4.1546527814454437e-01  6.5264309883605298e-01  -1.6922522232200085e-01  2.5257415182404097e+00  5.7877313065242422e-02  3.9538291735690884e-01  4.9619346118822416e-01  4.5681301792604712e-01  4.7796872786474565e-01  4.8673547585135196e-01  4.9393707981955376e-01  4.9730345801061326e-01  4.9893404129909369e-01  4.9957268923633197e-01  4.9978635624308254e-01  4.9985233964888670e-01  4.9985993412150725e-01  4.9984986287203942e-01  4.9983141737099407e-01  4.9980893640147855e-01  4.9978670544320614e-01  4.9976765044062410e-01  4.9975938917534707e-01  4.9977171119727182e-01  4.9981436424485243e-01  4.9989833216979701e-01  5.0002690980805287e-01  5.0019136022802013e-01  5.0036693562678880e-01  5.0051737546632957e-01  5.0061055142770727e-01  5.0063434536054652e-01  5.0059851261463761e-01  5.0052474843371419e-01  5.0043549220246586e-01  5.0034756338352759e-01  5.0027068544359099e-01  5.0020890346351321e-01  5.0016200104256403e-01  5.0012865416859986e-01  5.0010127456538211e-01  5.0007784106942532e-01  5.0001004329843179e-01  4.9986849613541401e-01  4.9936137747381865e-01  4.9805926301505560e-01  4.9579527931836859e-01  4.8677534142501766e-01  4.9286534300700185e-01  4.1565448550852901e-01  6.5265775005372584e-01  -1.6852273206686003e-01  2.5272133016309208e+00  5.7952316181119616e-02  3.9561846836036108e-01  4.9638679127488539e-01  4.5684984027789755e-01  4.7797810771990601e-01  4.8671672163256080e-01  4.9392357704446888e-01  4.9729539774217130e-01  4.9893281697287323e-01  4.9957028376595902e-01  4.9978662487694114e-01  4.9985102786258229e-01  4.9985548638525779e-01  4.9983987589944090e-01  4.9981200902114942e-01  4.9977576860448869e-01  4.9973557208800845e-01  4.9969159354173703e-01  4.9965931209992698e-01  4.9965089038555721e-01  4.9968662964111304e-01  4.9979498541314976e-01  4.9998536516250347e-01  5.0024762498404929e-01  5.0053209178138314e-01  5.0076088925297835e-01  5.0087306052850034e-01  5.0086066787298555e-01  5.0075902278343032e-01  5.0061570907414288e-01  5.0046871349661548e-01  5.0033999608968527e-01  5.0023807048670921e-01  5.0016324450832872e-01  5.0011133036590072e-01  5.0007775136749133e-01  5.0005264953837936e-01  5.0003251786329306e-01  4.9996826863958754e-01  4.9983028964977577e-01  4.9932575346404906e-01  4.9802917808702224e-01  4.9576205147852048e-01  4.8677373018653936e-01  4.9282851789891530e-01  4.1580457038880603e-01  6.5265809884168657e-01  -1.6796387067860521e-01  2.5284382184281236e+00  5.8005842246275904e-02  3.9576446598800746e-01  4.9654432077388261e-01  4.5687674349144375e-01  4.7799084713661077e-01  4.8670726683001808e-01  4.9392080865905119e-01  4.9729535348005016e-01  4.9893623293105871e-01  4.9957565788250374e-01  4.9979404015778406e-01  4.9985765659173742e-01  4.9986014536512746e-01  4.9983945341023689e-01  4.9980137049092555e-01  4.9974864162631938e-01  4.9968231186806722e-01  4.9959757681714495e-01  4.9952430755339683e-01  4.9946447983416842e-01  4.9947480793286608e-01  4.9961571088137235e-01  4.9990787318079599e-01  5.0035536987396323e-01  5.0084176313289652e-01  5.0118618501151002e-01  5.0128064245369730e-01  5.0115829419626312e-01  5.0092273263512421e-01  5.0066711838340638e-01  5.0044468978302037e-01  5.0027422650957609e-01  5.0015468457778800e-01  5.0007698509476761e-01  5.0002997758106982e-01  5.0000461878370517e-01  4.9998852760363643e-01  4.9997689586525135e-01  4.9992018525804283e-01  4.9978886040492448e-01  4.9928948404776630e-01  4.9800015758918748e-01  4.9573196266826880e-01  4.8677236605449697e-01  4.9279518930623528e-01  4.1593015325549360e-01  6.5265141799229320e-01  -1.6749921140908142e-01  2.5294563761027566e+00  5.8044444656712178e-02  3.9585123041917303e-01  4.9667186592003626e-01  4.5689497703950682e-01  4.7800290381395621e-01  4.8670053178426159e-01  4.9392080431265900e-01  4.9729759507756061e-01  4.9894285342263450e-01  4.9958569826627935e-01  4.9980684594004626e-01  4.9987223013138904e-01  4.9987557320832565e-01  4.9985272552189891e-01  4.9980695256689961e-01  4.9973790377649613e-01  4.9963701096813046e-01  4.9949487077838883e-01  4.9935432116441464e-01  4.9918112266868270e-01  4.9914715279661709e-01  4.9932165265910766e-01  4.9978487306777336e-01  5.0061623392800225e-01  5.0147496709714134e-01  5.0193744255952499e-01  5.0186410411764182e-01  5.0146153620370326e-01  5.0098419860644949e-01  5.0057806995342524e-01  5.0028645323458132e-01  5.0009935177867493e-01  4.9999027693095638e-01  4.9993379916906172e-01  4.9991004340407708e-01  4.9990602340907253e-01  4.9990801361783643e-01  4.9991106172234606e-01  4.9986608958178280e-01  4.9974427403856769e-01  4.9925214581492816e-01  4.9797112782023634e-01  4.9570351155139941e-01  4.8676936955420758e-01  4.9276438628904085e-01  4.1603337041769739e-01  6.5263790313111236e-01  -1.6711097525244431e-01  2.5302854815119797e+00  5.8071937386484529e-02  3.9589820749062404e-01  4.9677294341608813e-01  4.5690634893475890e-01  4.7801341398047009e-01  4.8669551711286829e-01  4.9392278958155988e-01  4.9730222591088191e-01  4.9895259968348843e-01  4.9959988167158126e-01  4.9982578327958632e-01  4.9989642334000062e-01  4.9990530592587129e-01  4.9988678686669530e-01  4.9984154253209456e-01  4.9976309557368848e-01  4.9962879595607662e-01  4.9942572984312633e-01  4.9918546193515961e-01  4.9881582614900272e-01  4.9874288676272249e-01  4.9886402525489160e-01  4.9965113994419086e-01  5.0133185768756272e-01  5.0279287045673848e-01  5.0316565293577009e-01  5.0248218766971364e-01  5.0148974523870160e-01  5.0066942294043615e-01  5.0014488495395648e-01  4.9986610081540223e-01  4.9974509459382149e-01  4.9971121814704444e-01  4.9972054632989099e-01  4.9974863254248197e-01  4.9978357446939359e-01  4.9981429983153669e-01  4.9983843094807684e-01  4.9980904630550654e-01  4.9969903102645824e-01  4.9921563780337674e-01  4.9794336072795448e-01  4.9567766362703675e-01  4.8676525892960415e-01  4.9273756277142200e-01  4.1611656250494905e-01  6.5262114617010836e-01  -1.6679026855504431e-01  2.5309425816887874e+00  5.8090976474216460e-02  3.9591970331464138e-01  4.9685008495395894e-01  4.5691246503507466e-01  4.7802212422828216e-01  4.8669196244324192e-01  4.9392606881679252e-01  4.9730831345621979e-01  4.9896408167174849e-01  4.9961676516455639e-01  4.9984954989603003e-01  4.9992916791165248e-01  4.9994980045956322e-01  4.9994582870026366e-01  4.9991671799930626e-01  4.9984960988732557e-01  4.9971043696506712e-01  4.9947457009348217e-01  4.9911423499315194e-01  4.9848374489223862e-01  4.9836705120154173e-01  4.9805776207456476e-01  4.9973128811052298e-01  5.0320694393928511e-01  5.0525450152852758e-01  5.0472452939105905e-01  5.0246282620645155e-01  5.0053165230757002e-01  4.9946221625424636e-01  4.9906382650875331e-01  4.9903139586159190e-01  4.9914789321246100e-01  4.9929888789068610e-01  4.9943831156150292e-01  4.9955369385232545e-01  4.9964634678981390e-01  4.9971543124861645e-01  4.9976546539828104e-01  4.9975399436988077e-01  4.9965678012242709e-01  4.9918257639579056e-01  4.9791860084724632e-01  4.9565569671471132e-01  4.8676063594812524e-01  4.9271611129612441e-01  4.1618063435291269e-01  6.5260475890766634e-01  -1.6653497773447043e-01  2.5314395962683118e+00  5.8103555369409039e-02  3.9592656569929047e-01  4.9690502644147871e-01  4.5691459206252677e-01  4.7802883599662443e-01  4.8668961089124962e-01  4.9392972532681489e-01  4.9731450470473249e-01  4.9897528507304906e-01  4.9963355023348088e-01  4.9987420192972831e-01  4.9996518956546832e-01  5.0000263858594252e-01  5.0002318897215781e-01  5.0002852657796448e-01  5.0000508022047696e-01  4.9991664474600511e-01  4.9971610831038143e-01  4.9930440880944538e-01  4.9854401064266451e-01  4.9843871534258566e-01  4.9694807370214655e-01  5.0101273618739461e-01  5.0715865611641364e-01  5.0873956698971512e-01  5.0540977151167166e-01  5.0000032980135389e-01  4.9743541530390206e-01  4.9677833581306641e-01  4.9710788238108994e-01  4.9773329610362210e-01  4.9832731987951995e-01  4.9879001142375401e-01  4.9912150355443624e-01  4.9935211882942993e-01  4.9951381420721075e-01  4.9962503140163633e-01  4.9970156479317224e-01  4.9970739138507891e-01  4.9962194036270458e-01  4.9915596492679287e-01  4.9789879952000476e-01  4.9563897828919340e-01  4.8675612710718386e-01  4.9270126060446545e-01  4.1622579814406740e-01  6.5259198377035454e-01  -1.6634608177033305e-01  2.5317848583698708e+00  5.8111198707912488e-02  3.9592661729575612e-01  4.9693882625304087e-01  4.5691363608414037e-01  4.7803333724463964e-01  4.8668821730287665e-01  4.9393285749581323e-01  4.9731934645207698e-01  4.9898377774251546e-01  4.9964634143286824e-01  4.9989349228108870e-01  4.9999451010775164e-01  5.0004785147102571e-01  5.0009354993594246e-01  5.0013817627246415e-01  5.0017417787790031e-01  5.0017392353343693e-01  5.0008479372884895e-01  4.9981132689546459e-01  4.9927512312744204e-01  4.9906749494114083e-01  4.9516045163123262e-01  5.0352387348313832e-01  5.1068517592152052e-01  5.0950693813483949e-01  5.0280516806051401e-01  4.9247187390372837e-01  4.9078059798952400e-01  4.9262262095691428e-01  4.9459890334089840e-01  4.9627742473416731e-01  4.9750139349526368e-01  4.9832337401879073e-01  4.9885384104762870e-01  4.9919345136981308e-01  4.9941537168686406e-01  4.9956082673481295e-01  4.9965766917084758e-01  4.9967615388979414e-01  4.9959896786543584e-01  4.9913870776769476e-01  4.9788581022696621e-01  4.9562876853386750e-01  4.8675234847830740e-01  4.9269400302187266e-01  4.1625208688859472e-01  6.5258535671939499e-01  -1.6622547713078623e-01  2.5319840193737604e+00  5.8115008458043606e-02  3.9592460748132036e-01  4.9695196674142267e-01  4.5691013859842639e-01  4.7803541543893724e-01  4.8668757107899790e-01  4.9393473826682383e-01  4.9732161857277107e-01  4.9898740654261958e-01  4.9965147847815650e-01  4.9990111794136943e-01  5.0000610932005030e-01  5.0006585366516088e-01  5.0012179890549624e-01  5.0018273826838167e-01  5.0024461568909062e-01  5.0028544933075014e-01  5.0025933301605929e-01  5.0009979223871048e-01  4.9970580651318197e-01  4.9893098561753857e-01  4.9383530762958899e-01  5.0424746283445931e-01  5.0397910843875249e-01  5.0489894223120224e-01  4.9756610434239040e-01  4.7543165471911880e-01  4.8272869223330261e-01  4.8898407090721602e-01  4.9297742622671897e-01  4.9549690658153472e-01  4.9711220959576019e-01  4.9812492144457865e-01  4.9874932973070335e-01  4.9913557016882021e-01  4.9938110990905288e-01  4.9953906790146985e-01  4.9964296551780407e-01  4.9966571766504075e-01  4.9959120049162170e-01  4.9913290657790815e-01  4.9788095274032523e-01  4.9562593015988171e-01  4.8674976266177350e-01  4.9269492619168681e-01  4.1