<?xml version="1.0"?>
<VTKFile type="UnstructuredGrid"  version="0.1"  >
<UnstructuredGrid>
<Piece  NumberOfPoints="1617" NumberOfCells="3072">
<Points>
<DataArray  type="Float64"  NumberOfComponents="3"  format="ascii">0 0 0  0.03125 0 0  0.0625 0 0  0.09375 0 0  0.125 0 0  0.15625 0 0  0.1875 0 0  0.21875 0 0  0.25 0 0  0.28125 0 0  0.3125 0 0  0.34375 0 0  0.375 0 0  0.40625 0 0  0.4375 0 0  0.46875 0 0  0.5 0 0  0.53125 0 0  0.5625 0 0  0.59375 0 0  0.625 0 0  0.65625 0 0  0.6875 0 0  0.71875 0 0  0.75 0 0  0.78125 0 0  0.8125 0 0  0.84375 0 0  0.875 0 0  0.90625 0 0  0.9375 0 0  0.96875 0 0  1 0 0  1.03125 0 0  1.0625 0 0  1.09375 0 0  1.125 0 0  1.15625 0 0  1.1875 0 0  1.21875 0 0  1.25 0 0  1.28125 0 0  1.3125 0 0  1.34375 0 0  1.375 0 0  1.40625 0 0  1.4375 0 0  1.46875 0 0  1.5 0 0  0 0.03125 0  0.03125 0.03125 0  0.0625 0.03125 0  0.09375 0.03125 0  0.125 0.03125 0  0.15625 0.03125 0  0.1875 0.03125 0  0.21875 0.03125 0  0.25 0.03125 0  0.28125 0.03125 0  0.3125 0.03125 0  0.34375 0.03125 0  0.375 0.03125 0  0.40625 0.03125 0  0.4375 0.03125 0  0.46875 0.03125 0  0.5 0.03125 0  0.53125 0.03125 0  0.5625 0.03125 0  0.59375 0.03125 0  0.625 0.03125 0  0.65625 0.03125 0  0.6875 0.03125 0  0.71875 0.03125 0  0.75 0.03125 0  0.78125 0.03125 0  0.8125 0.03125 0  0.84375 0.03125 0  0.875 0.03125 0  0.90625 0.03125 0  0.9375 0.03125 0  0.96875 0.03125 0  1 0.03125 0  1.03125 0.03125 0  1.0625 0.03125 0  1.09375 0.03125 0  1.125 0.03125 0  1.15625 0.03125 0  1.1875 0.03125 0  1.21875 0.03125 0  1.25 0.03125 0  1.28125 0.03125 0  1.3125 0.03125 0  1.34375 0.03125 0  1.375 0.03125 0  1.40625 0.03125 0  1.4375 0.03125 0  1.46875 0.03125 0  1.5 0.03125 0  0 0.0625 0  0.03125 0.0625 0  0.0625 0.0625 0  0.09375 0.0625 0  0.125 0.0625 0  0.15625 0.0625 0  0.1875 0.0625 0  0.21875 0.0625 0  0.25 0.0625 0  0.28125 0.0625 0  0.3125 0.0625 0  0.34375 0.0625 0  0.375 0.0625 0  0.40625 0.0625 0  0.4375 0.0625 0  0.46875 0.0625 0  0.5 0.0625 0  0.53125 0.0625 0  0.5625 0.0625 0  0.59375 0.0625 0  0.625 0.0625 0  0.65625 0.0625 0  0.6875 0.0625 0  0.71875 0.0625 0  0.75 0.0625 0  0.78125 0.0625 0  0.8125 0.0625 0  0.84375 0.0625 0  0.875 0.0625 0  0.90625 0.0625 0  0.9375 0.0625 0  0.96875 0.0625 0  1 0.0625 0  1.03125 0.0625 0  1.0625 0.0625 0  1.09375 0.0625 0  1.125 0.0625 0  1.15625 0.0625 0  1.1875 0.0625 0  1.21875 0.0625 0  1.25 0.0625 0  1.28125 0.0625 0  1.3125 0.0625 0  1.34375 0.0625 0  1.375 0.0625 0  1.40625 0.0625 0  1.4375 0.0625 0  1.46875 0.0625 0  1.5 0.0625 0  0 0.09375 0  0.03125 0.09375 0  0.0625 0.09375 0  0.09375 0.09375 0  0.125 0.09375 0  0.15625 0.09375 0  0.1875 0.09375 0  0.21875 0.09375 0  0.25 0.09375 0  0.28125 0.09375 0  0.3125 0.09375 0  0.34375 0.09375 0  0.375 0.09375 0  0.40625 0.09375 0  0.4375 0.09375 0  0.46875 0.09375 0  0.5 0.09375 0  0.53125 0.09375 0  0.5625 0.09375 0  0.59375 0.09375 0  0.625 0.09375 0  0.65625 0.09375 0  0.6875 0.09375 0  0.71875 0.09375 0  0.75 0.09375 0  0.78125 0.09375 0  0.8125 0.09375 0  0.84375 0.09375 0  0.875 0.09375 0  0.90625 0.09375 0  0.9375 0.09375 0  0.96875 0.09375 0  1 0.09375 0  1.03125 0.09375 0  1.0625 0.09375 0  1.09375 0.09375 0  1.125 0.09375 0  1.15625 0.09375 0  1.1875 0.09375 0  1.21875 0.09375 0  1.25 0.09375 0  1.28125 0.09375 0  1.3125 0.09375 0  1.34375 0.09375 0  1.375 0.09375 0  1.40625 0.09375 0  1.4375 0.09375 0  1.46875 0.09375 0  1.5 0.09375 0  0 0.125 0  0.03125 0.125 0  0.0625 0.125 0  0.09375 0.125 0  0.125 0.125 0  0.15625 0.125 0  0.1875 0.125 0  0.21875 0.125 0  0.25 0.125 0  0.28125 0.125 0  0.3125 0.125 0  0.34375 0.125 0  0.375 0.125 0  0.40625 0.125 0  0.4375 0.125 0  0.46875 0.125 0  0.5 0.125 0  0.53125 0.125 0  0.5625 0.125 0  0.59375 0.125 0  0.625 0.125 0  0.65625 0.125 0  0.6875 0.125 0  0.71875 0.125 0  0.75 0.125 0  0.78125 0.125 0  0.8125 0.125 0  0.84375 0.125 0  0.875 0.125 0  0.90625 0.125 0  0.9375 0.125 0  0.96875 0.125 0  1 0.125 0  1.03125 0.125 0  1.0625 0.125 0  1.09375 0.125 0  1.125 0.125 0  1.15625 0.125 0  1.1875 0.125 0  1.21875 0.125 0  1.25 0.125 0  1.28125 0.125 0  1.3125 0.125 0  1.34375 0.125 0  1.375 0.125 0  1.40625 0.125 0  1.4375 0.125 0  1.46875 0.125 0  1.5 0.125 0  0 0.15625 0  0.03125 0.15625 0  0.0625 0.15625 0  0.09375 0.15625 0  0.125 0.15625 0  0.15625 0.15625 0  0.1875 0.15625 0  0.21875 0.15625 0  0.25 0.15625 0  0.28125 0.15625 0  0.3125 0.15625 0  0.34375 0.15625 0  0.375 0.15625 0  0.40625 0.15625 0  0.4375 0.15625 0  0.46875 0.15625 0  0.5 0.15625 0  0.53125 0.15625 0  0.5625 0.15625 0  0.59375 0.15625 0  0.625 0.15625 0  0.65625 0.15625 0  0.6875 0.15625 0  0.71875 0.15625 0  0.75 0.15625 0  0.78125 0.15625 0  0.8125 0.15625 0  0.84375 0.15625 0  0.875 0.15625 0  0.90625 0.15625 0  0.9375 0.15625 0  0.96875 0.15625 0  1 0.15625 0  1.03125 0.15625 0  1.0625 0.15625 0  1.09375 0.15625 0  1.125 0.15625 0  1.15625 0.15625 0  1.1875 0.15625 0  1.21875 0.15625 0  1.25 0.15625 0  1.28125 0.15625 0  1.3125 0.15625 0  1.34375 0.15625 0  1.375 0.15625 0  1.40625 0.15625 0  1.4375 0.15625 0  1.46875 0.15625 0  1.5 0.15625 0  0 0.1875 0  0.03125 0.1875 0  0.0625 0.1875 0  0.09375 0.1875 0  0.125 0.1875 0  0.15625 0.1875 0  0.1875 0.1875 0  0.21875 0.1875 0  0.25 0.1875 0  0.28125 0.1875 0  0.3125 0.1875 0  0.34375 0.1875 0  0.375 0.1875 0  0.40625 0.1875 0  0.4375 0.1875 0  0.46875 0.1875 0  0.5 0.1875 0  0.53125 0.1875 0  0.5625 0.1875 0  0.59375 0.1875 0  0.625 0.1875 0  0.65625 0.1875 0  0.6875 0.1875 0  0.71875 0.1875 0  0.75 0.1875 0  0.78125 0.1875 0  0.8125 0.1875 0  0.84375 0.1875 0  0.875 0.1875 0  0.90625 0.1875 0  0.9375 0.1875 0  0.96875 0.1875 0  1 0.1875 0  1.03125 0.1875 0  1.0625 0.1875 0  1.09375 0.1875 0  1.125 0.1875 0  1.15625 0.1875 0  1.1875 0.1875 0  1.21875 0.1875 0  1.25 0.1875 0  1.28125 0.1875 0  1.3125 0.1875 0  1.34375 0.1875 0  1.375 0.1875 0  1.40625 0.1875 0  1.4375 0.1875 0  1.46875 0.1875 0  1.5 0.1875 0  0 0.21875 0  0.03125 0.21875 0  0.0625 0.21875 0  0.09375 0.21875 0  0.125 0.21875 0  0.15625 0.21875 0  0.1875 0.21875 0  0.21875 0.21875 0  0.25 0.21875 0  0.28125 0.21875 0  0.3125 0.21875 0  0.34375 0.21875 0  0.375 0.21875 0  0.40625 0.21875 0  0.4375 0.21875 0  0.46875 0.21875 0  0.5 0.21875 0  0.53125 0.21875 0  0.5625 0.21875 0  0.59375 0.21875 0  0.625 0.21875 0  0.65625 0.21875 0  0.6875 0.21875 0  0.71875 0.21875 0  0.75 0.21875 0  0.78125 0.21875 0  0.8125 0.21875 0  0.84375 0.21875 0  0.875 0.21875 0  0.90625 0.21875 0  0.9375 0.21875 0  0.96875 0.21875 0  1 0.21875 0  1.03125 0.21875 0  1.0625 0.21875 0  1.09375 0.21875 0  1.125 0.21875 0  1.15625 0.21875 0  1.1875 0.21875 0  1.21875 0.21875 0  1.25 0.21875 0  1.28125 0.21875 0  1.3125 0.21875 0  1.34375 0.21875 0  1.375 0.21875 0  1.40625 0.21875 0  1.4375 0.21875 0  1.46875 0.21875 0  1.5 0.21875 0  0 0.25 0  0.03125 0.25 0  0.0625 0.25 0  0.09375 0.25 0  0.125 0.25 0  0.15625 0.25 0  0.1875 0.25 0  0.21875 0.25 0  0.25 0.25 0  0.28125 0.25 0  0.3125 0.25 0  0.34375 0.25 0  0.375 0.25 0  0.40625 0.25 0  0.4375 0.25 0  0.46875 0.25 0  0.5 0.25 0  0.53125 0.25 0  0.5625 0.25 0  0.59375 0.25 0  0.625 0.25 0  0.65625 0.25 0  0.6875 0.25 0  0.71875 0.25 0  0.75 0.25 0  0.78125 0.25 0  0.8125 0.25 0  0.84375 0.25 0  0.875 0.25 0  0.90625 0.25 0  0.9375 0.25 0  0.96875 0.25 0  1 0.25 0  1.03125 0.25 0  1.0625 0.25 0  1.09375 0.25 0  1.125 0.25 0  1.15625 0.25 0  1.1875 0.25 0  1.21875 0.25 0  1.25 0.25 0  1.28125 0.25 0  1.3125 0.25 0  1.34375 0.25 0  1.375 0.25 0  1.40625 0.25 0  1.4375 0.25 0  1.46875 0.25 0  1.5 0.25 0  0 0.28125 0  0.03125 0.28125 0  0.0625 0.28125 0  0.09375 0.28125 0  0.125 0.28125 0  0.15625 0.28125 0  0.1875 0.28125 0  0.21875 0.28125 0  0.25 0.28125 0  0.28125 0.28125 0  0.3125 0.28125 0  0.34375 0.28125 0  0.375 0.28125 0  0.40625 0.28125 0  0.4375 0.28125 0  0.46875 0.28125 0  0.5 0.28125 0  0.53125 0.28125 0  0.5625 0.28125 0  0.59375 0.28125 0  0.625 0.28125 0  0.65625 0.28125 0  0.6875 0.28125 0  0.71875 0.28125 0  0.75 0.28125 0  0.78125 0.28125 0  0.8125 0.28125 0  0.84375 0.28125 0  0.875 0.28125 0  0.90625 0.28125 0  0.9375 0.28125 0  0.96875 0.28125 0  1 0.28125 0  1.03125 0.28125 0  1.0625 0.28125 0  1.09375 0.28125 0  1.125 0.28125 0  1.15625 0.28125 0  1.1875 0.28125 0  1.21875 0.28125 0  1.25 0.28125 0  1.28125 0.28125 0  1.3125 0.28125 0  1.34375 0.28125 0  1.375 0.28125 0  1.40625 0.28125 0  1.4375 0.28125 0  1.46875 0.28125 0  1.5 0.28125 0  0 0.3125 0  0.03125 0.3125 0  0.0625 0.3125 0  0.09375 0.3125 0  0.125 0.3125 0  0.15625 0.3125 0  0.1875 0.3125 0  0.21875 0.3125 0  0.25 0.3125 0  0.28125 0.3125 0  0.3125 0.3125 0  0.34375 0.3125 0  0.375 0.3125 0  0.40625 0.3125 0  0.4375 0.3125 0  0.46875 0.3125 0  0.5 0.3125 0  0.53125 0.3125 0  0.5625 0.3125 0  0.59375 0.3125 0  0.625 0.3125 0  0.65625 0.3125 0  0.6875 0.3125 0  0.71875 0.3125 0  0.75 0.3125 0  0.78125 0.3125 0  0.8125 0.3125 0  0.84375 0.3125 0  0.875 0.3125 0  0.90625 0.3125 0  0.9375 0.3125 0  0.96875 0.3125 0  1 0.3125 0  1.03125 0.3125 0  1.0625 0.3125 0  1.09375 0.3125 0  1.125 0.3125 0  1.15625 0.3125 0  1.1875 0.3125 0  1.21875 0.3125 0  1.25 0.3125 0  1.28125 0.3125 0  1.3125 0.3125 0  1.34375 0.3125 0  1.375 0.3125 0  1.40625 0.3125 0  1.4375 0.3125 0  1.46875 0.3125 0  1.5 0.3125 0  0 0.34375 0  0.03125 0.34375 0  0.0625 0.34375 0  0.09375 0.34375 0  0.125 0.34375 0  0.15625 0.34375 0  0.1875 0.34375 0  0.21875 0.34375 0  0.25 0.34375 0  0.28125 0.34375 0  0.3125 0.34375 0  0.34375 0.34375 0  0.375 0.34375 0  0.40625 0.34375 0  0.4375 0.34375 0  0.46875 0.34375 0  0.5 0.34375 0  0.53125 0.34375 0  0.5625 0.34375 0  0.59375 0.34375 0  0.625 0.34375 0  0.65625 0.34375 0  0.6875 0.34375 0  0.71875 0.34375 0  0.75 0.34375 0  0.78125 0.34375 0  0.8125 0.34375 0  0.84375 0.34375 0  0.875 0.34375 0  0.90625 0.34375 0  0.9375 0.34375 0  0.96875 0.34375 0  1 0.34375 0  1.03125 0.34375 0  1.0625 0.34375 0  1.09375 0.34375 0  1.125 0.34375 0  1.15625 0.34375 0  1.1875 0.34375 0  1.21875 0.34375 0  1.25 0.34375 0  1.28125 0.34375 0  1.3125 0.34375 0  1.34375 0.34375 0  1.375 0.34375 0  1
[...]
<PointData  Scalars="f_65"> 
<DataArray  type="Float64"  Name="f_65"  format="ascii">9.3410798862658129e-02  3.4886331309523017e-01  3.7789336508316546e-01  4.0037659978894252e-01  4.1470189271069291e-01  4.2716567824313995e-01  4.3594818395680313e-01  4.4228472686151377e-01  4.4713369024046756e-01  4.5122502480232890e-01  4.5497621567940699e-01  4.5859560712138958e-01  4.6217500572089920e-01  4.6575408624313291e-01  4.6935246041473794e-01  4.7298317009971813e-01  4.7665749570331500e-01  4.8038630932137466e-01  4.8418013261669279e-01  4.8804870407257828e-01  4.9200037125256724e-01  4.9604148708651802e-01  5.0017595826047656e-01  5.0440507122105083e-01  5.0872767346126124e-01  5.1314071255709770e-01  5.1764005021321891e-01  5.2222140020859564e-01  5.2688121161845136e-01  5.3161734099703406e-01  5.3642941780829323e-01  5.4131888348245649e-01  5.4628873507424414e-01  5.5134304612741558e-01  5.5648621616329652e-01  5.6172193265428827e-01  5.6705065052783843e-01  5.7246367298030754e-01  5.7792398233978481e-01  5.8330683217416635e-01  5.8831742484884875e-01  5.9207702047693112e-01  5.9396949312165803e-01  5.8897491978726557e-01  5.8240578456857628e-01  5.7870154340179392e-01  4.1088133610623317e-01  3.9377037861451475e-01  2.1487389703726456e+00  7.1451234829667004e-02  5.4183262591360770e-01  4.2562629862464513e-01  4.9744347082466872e-01  5.0253459150371504e-01  5.1190123312884683e-01  5.1729148787261148e-01  5.1972383027241009e-01  5.2039922577389586e-01  5.2017781478580893e-01  5.1956216096357055e-01  5.1879729498720839e-01  5.1798525086059488e-01  5.1716455181347543e-01  5.1634934632934337e-01  5.1554549112264414e-01  5.1475610915890124e-01  5.1398316362431595e-01  5.1322767507794831e-01  5.1248952130886094e-01  5.1176715471375511e-01  5.1105739528450467e-01  5.1035540297049686e-01  5.0965489493273686e-01  5.0894862002030727e-01  5.0822903690297216e-01  5.0748908105692592e-01  5.0672287132609151e-01  5.0592621460498066e-01  5.0509681703819076e-01  5.0423418306623746e-01  5.0333925192595830e-01  5.0241385483081125e-01  5.0146006728016801e-01  5.0047942685304281e-01  4.9947177074950677e-01  4.9843265934904635e-01  4.9734621460754802e-01  4.9616584001087083e-01  4.9475843972895994e-01  4.9281961791602952e-01  4.8961869593944274e-01  4.8428678262753372e-01  4.7425450455135121e-01  4.6021361938591610e-01  4.5758282963332497e-01  3.6345999661617817e-01  3.6576171050358852e-01  1.5905819470002303e+00  8.7868482398142586e-02  5.5307383634217733e-01  3.6323397169349414e-01  4.8660613650249873e-01  4.7486224628964191e-01  4.8650805949719100e-01  4.9323838468964465e-01  4.9676950346161386e-01  4.9851932746449601e-01  4.9933054089701695e-01  4.9973303841713379e-01  4.9997868491007269e-01  5.0017192199711258e-01  5.0034999826820747e-01  5.0052513722996006e-01  5.0070148327133723e-01  5.0088091380395083e-01  5.0106470031556694e-01  5.0125384642563620e-01  5.0144904365678067e-01  5.0165053233217893e-01  5.0185796400608307e-01  5.0207031476175135e-01  5.0228588577135225e-01  5.0250241529244100e-01  5.0271730563844608e-01  5.0292793797830682e-01  5.0313201498232729e-01  5.0332785286413995e-01  5.0351455506739973e-01  5.0369203726027623e-01  5.0386091739676220e-01  5.0402230463455211e-01  5.0417751598909599e-01  5.0432762034030076e-01  5.0447255786539402e-01  5.0460842154686425e-01  5.0472011547239592e-01  5.0475915835026908e-01  5.0458973000232132e-01  5.0389556692830972e-01  5.0196577871986925e-01  4.9800945018598775e-01  4.8942971856573148e-01  4.7921230996425401e-01  4.7506434222939059e-01  3.8437620408580342e-01  3.8817216133645699e-01  1.6335470852726579e+00  9.2823521168317866e-02  5.5150510736044334e-01  3.6136192058706706e-01  4.9860617457456458e-01  4.7251942981434747e-01  4.8803585608162886e-01  4.9443553483834873e-01  4.9775213321751810e-01  4.9937273876110955e-01  5.0005380935692656e-01  5.0033027361731619e-01  5.0045005535670861e-01  5.0051591056656231e-01  5.0056265094751717e-01  5.0060110097157740e-01  5.0063459875547223e-01  5.0066457550613475e-01  5.0069208980580404e-01  5.0071814586921048e-01  5.0074365783384178e-01  5.0076930089268568e-01  5.0079532179372999e-01  5.0082135520303517e-01  5.0084630109497574e-01  5.0086832581504559e-01  5.0088503454278044e-01  5.0089381123164789e-01  5.0089224711269775e-01  5.0087852497765184e-01  5.0085163965681712e-01  5.0081140954042636e-01  5.0075831796097359e-01  5.0069325867295356e-01  5.0061724715381639e-01  5.0053101259593058e-01  5.0043420758692569e-01  5.0032284957500517e-01  5.0018204563512947e-01  4.9996460976173446e-01  4.9953723976472530e-01  4.9859794977507321e-01  4.9645970369494596e-01  4.9243698294241889e-01  4.8399283810795335e-01  4.7437829470028570e-01  4.7201818165477011e-01  3.8204170231243206e-01  3.8609871753022390e-01  1.6278955460669380e+00  9.4747472053616166e-02  5.5517581689417173e-01  3.6516356764890329e-01  5.0069580333516162e-01  4.7046949690955397e-01  4.8891315713635863e-01  4.9415032159092609e-01  4.9730700444698872e-01  4.9885079000015875e-01  4.9946736756585403e-01  4.9969601347865772e-01  4.9977832101296632e-01  4.9981200879833143e-01  4.9982977939796364e-01  4.9984189915256577e-01  4.9985172597556055e-01  4.9986097820036945e-01  4.9987119114390122e-01  4.9988404275390486e-01  4.9990130892042689e-01  4.9992463801657239e-01  4.9995521940404059e-01  4.9999340515556490e-01  5.0003839131423844e-01  5.0008810441956231e-01  5.0013942478685636e-01  5.0018876584232819e-01  5.0023284456922645e-01  5.0026934758038932e-01  5.0029724984698365e-01  5.0031673598225390e-01  5.0032885122338167e-01  5.0033506129025362e-01  5.0033684657672595e-01  5.0033526443656784e-01  5.0033019877102380e-01  5.0031791388556357e-01  5.0028395660969893e-01  5.0018222502729370e-01  4.9988238191149037e-01  4.9908992326842694e-01  4.9714034488124975e-01  4.9337649564386882e-01  4.8535666682122786e-01  4.7629548783113246e-01  4.7454432311803935e-01  3.8540895355909605e-01  3.9030689300992782e-01  1.6359506671970936e+00  9.5846522288008648e-02  5.5793980473714233e-01  3.6603654316392920e-01  5.0099062930298333e-01  4.7063301699471294e-01  4.8974340733589666e-01  4.9407984970409063e-01  4.9736307097778881e-01  4.9888388900274433e-01  4.9947465107429423e-01  4.9968761453839933e-01  4.9975667741073371e-01  4.9977546587439314e-01  4.9977704841869841e-01  4.9977183420301358e-01  4.9976355701348474e-01  4.9975438460027355e-01  4.9974647335969508e-01  4.9974239057449371e-01  4.9974505692677373e-01  4.9975737614985916e-01  4.9978165873744579e-01  4.9981887484747112e-01  4.9986796620374191e-01  4.9992554091905572e-01  4.9998627618558356e-01  5.0004409846251308e-01  5.0009373149165148e-01  5.0013189898403121e-01  5.0015770136599136e-01  5.0017220477807034e-01  5.0017762990009873e-01  5.0017653859892819e-01  5.0017123006290531e-01  5.0016325875245993e-01  5.0015273508759273e-01  5.0013596768050228e-01  5.0009849616011526e-01  4.9999435501243650e-01  4.9969415052530741e-01  4.9890644198356510e-01  4.9697668914980819e-01  4.9326423678459802e-01  4.8536351952050905e-01  4.7652914462819929e-01  4.7503212839600234e-01  3.8642842520339704e-01  3.9172407674751591e-01  1.6378729901566325e+00  9.6521495740497121e-02  5.5989862922466327e-01  3.6632886415796673e-01  5.0154186977754633e-01  4.7104600888760062e-01  4.9001752027147050e-01  4.9407382800892485e-01  4.9750793624894424e-01  4.9897342695792135e-01  4.9954874396974419e-01  4.9975401476368408e-01  4.9981275195502506e-01  4.9981841684415101e-01  4.9980551313358507e-01  4.9978439447828116e-01  4.9975918779602069e-01  4.9973247565599527e-01  4.9970716097741757e-01  4.9968711484771089e-01  4.9967704887168707e-01  4.9968198926548152e-01  4.9970631617714395e-01  4.9975223872885960e-01  4.9981832605255289e-01  4.9989872932514950e-01  4.9998395620101610e-01  5.0006343956405241e-01  5.0012876843170617e-01  5.0017578246631378e-01  5.0020468841299848e-01  5.0021870942132263e-01  5.0022232513756504e-01  5.0021987696027193e-01  5.0021477977245510e-01  5.0020910874826530e-01  5.0020306490000987e-01  5.0019278130899347e-01  5.0016347816257711e-01  5.0006885025723824e-01  4.9977936488158031e-01  4.9900436992243147e-01  4.9709362935074697e-01  4.9341381792647487e-01  4.8558302536242032e-01  4.7688153518368448e-01  4.7553449929057195e-01  3.8732354519404399e-01  3.9319087870365971e-01  1.6407247513493648e+00  9.6876146787298195e-02  5.6113538740553870e-01  3.6632136534684867e-01  5.0187265609013088e-01  4.7111779701313006e-01  4.9003798959293748e-01  4.9407533626768141e-01  4.9756008353159586e-01  4.9898474443324586e-01  4.9957085810464125e-01  4.9977882119255423e-01  4.9983487569014057e-01  4.9983542600989528e-01  4.9981515486205136e-01  4.9978390974544173e-01  4.9974591938931079e-01  4.9970384039235777e-01  4.9966136199101252e-01  4.9962418037411149e-01  4.9959970489247529e-01  4.9959677744824604e-01  4.9962389637388738e-01  4.9968597412963123e-01  4.9978124133820934e-01  4.9989908991642884e-01  5.0002168452280427e-01  5.0013004727411958e-01  5.0021104274279693e-01  5.0026063490635853e-01  5.0028251767777199e-01  5.0028441403876767e-01  5.0027459889199966e-01  5.0025983352101000e-01  5.0024465591577882e-01  5.0023135526610329e-01  5.0021983755097255e-01  5.0020572221771697e-01  5.0017366614332670e-01  5.0007683314225770e-01  4.9978528597120375e-01  4.9900834134739075e-01  4.9709790363666928e-01  4.9342420134177933e-01  4.8562148498158908e-01  4.7699264050885731e-01  4.7573263661045334e-01  3.8778532533308602e-01  3.9410992291362595e-01  1.6428012025342267e+00  9.7067352642225449e-02  5.6197004077016321e-01  3.6624264041547377e-01  5.0207955038959062e-01  4.7110427472581667e-01  4.9005291568624199e-01  4.9407974297981183e-01  4.9756877690244505e-01  4.9898523265366418e-01  4.9958612010129994e-01  4.9979453124497081e-01  4.9984946773896310e-01  4.9984714462643420e-01  4.9982084952461731e-01  4.9977970009049805e-01  4.9972728884873829e-01  4.9966564389813867e-01  4.9959917056380604e-01  4.9953571636872224e-01  4.9948669125190998e-01  4.9946841162354694e-01  4.9949762717114504e-01  4.9958532887739604e-01  4.9973006586828567e-01  4.9991115594731600e-01  5.0009293287567147e-01  5.0024052717676726e-01  5.0033503628673248e-01  5.0037672743581652e-01  5.0037829817696777e-01  5.0035599774658968e-01  5.0032370693838912e-01  5.0029076029140540e-01  5.0026215744082003e-01  5.0023954890188160e-01  5.0022182027604944e-01  5.0020358410863341e-01  5.0016866945245986e-01  5.0006962568020663e-01  4.9977610540062500e-01  4.9899727237878677e-01  4.9708628737222849e-01  4.9341538683690994e-01  4.8563033846160336e-01  4.7705207746675249e-01  4.7585414413008936e-01  3.8810617761364902e-01  3.9482111572999157e-01  1.6445908662749966e+00  9.7171034660306341e-02  5.6256924773761685e-01  3.6616237561572446e-01  5.0224042267656799e-01  4.7109321012425248e-01  4.9007944011465016e-01  4.9408609434392231e-01  4.9758201144862851e-01  4.9900302053200013e-01  4.9961128899373364e-01  4.9981949332055986e-01  4.9987534374517678e-01  4.9987145448608228e-01  4.9983982262178062e-01  4.9978828761023175e-01  4.9971837879083186e-01  4.9963027828328538e-01  4.9952829457763898e-01  4.9942152438103726e-01  4.9932795744464525e-01  4.9927875400658944e-01  4.9930609539911147e-01  4.9943587522723382e-01  4.9966943375864786e-01  4.9996169810584179e-01  5.0023678219496914e-01  5.0043105129695853e-01  5.0052405090842877e-01  5.0053307374583578e-01  5.0049081575755583e-01  5.0042735341018740e-01  5.0036279505239656e-01  5.0030741848281479e-01  5.0026462006816419e-01  5.0023374311407531e-01  5.0021157212008704e-01  5.0019113130261017e-01  5.0015518789878255e-01  5.0005565740617430e-01  4.9976186702329056e-01  4.9898287950645304e-01  4.9707274853628058e-01  4.9340503198263019e-01  4.8563401604450845e-01  4.7709490864269138e-01  4.7594576720433773e-01  3.8835391193690233e-01  3.9538361885553630e-01  1.6461206142003850e+00  9.7226596365617424e-02  5.6301559574427262e-01  3.6609438727273519e-01  5.0237397515098980e-01  4.7108738765494995e-01  4.9010787919441906e-01  4.9409754351493756e-01  4.9760429674616574e-01  4.9902950983081112e-01  4.9964271993209847e-01  4.9985428052805148e-01  4.9991406485579659e-01  4.9991149765576065e-01  4.9987758814707334e-01  4.9981751802458246e-01  4.9972871292412008e-01  4.9960738949784944e-01  4.9945448223228933e-01  4.9927736190675570e-01  4.9910664088300838e-01  4.9899889795864699e-01  4.9901388446924938e-01  4.9921889741099390e-01  4.9962224905422370e-01  5.0011333456962370e-01  5.0052543152254558e-01  5.0075083375934359e-01  5.0079320162326435e-01  5.0071858056616914e-01  5.0059674430432088e-01  5.0047390082568532e-01  5.0037164697535474e-01  5.0029551902873681e-01  5.0024313979709600e-01  5.0020918474209164e-01  5.0018727101137272e-01  5.0016851037757848e-01  5.0013464426633858e-01  5.0003713516091219e-01  4.9974519357992009e-01  4.9896793883434887e-01  4.9706016297777639e-01  4.9339642791033689e-01  4.8563747614639202e-01  4.7712982296191847e-01  4.7602066044264679e-01  3.8855526000793084e-01  3.9583875541169283e-01  1.6474211198933095e+00  9.7253572298631769e-02  5.6335004755441365e-01  3.6603818007019467e-01  5.0248524813020201e-01  4.7108535533603668e-01  4.9013697891366609e-01  4.9411385963046528e-01  4.9763146243533418e-01  4.9906096694160157e-01  4.9968125364845101e-01  4.9990009668114554e-01  4.9996768062927782e-01  4.9997189250180962e-01  4.9994231275440515e-01  4.9988006363548482e-01  4.9977640234204312e-01  4.9961990357501945e-01  4.9940062151192027e-01  4.9911982239667474e-01  4.9882800203281519e-01  4.9861054497153195e-01  4.9858369210078984e-01  4.9893329547385673e-01  4.9966873759970232e-01  5.0050285626109725e-01  5.0107386620573602e-01  5.0123532019722628e-01  5.0110596992640410e-01  5.0086259712182379e-01  5.0062407091665517e-01  5.0043854929108045e-01  5.0031136275729304e-01  5.0023125131670010e-01  5.0018438983998936e-01  5.0015907057399800e-01  5.0014586787171011e-01  5.0013468819889273e-01  5.0010698933025954e-01  5.0001438316909941e-01  4.9972640038410476e-01  4.9895250495427657e-01  4.9704822752565803e-01  4.9338901286020131e-01  4.8564058219170370e-01  4.7715836041167858e-01  4.7608227160906991e-01  3.8872005204408699e-01  3.9620727120761601e-01  1.6485078300829268e+00  9.7263855214171052e-02  5.6359700169802684e-01  3.6599184200690560e-01  5.0257578451755613e-01  4.7108480290195709e-01  4.9016408447895071e-01  4.9413155620392846e-01  4.9765985252298961e-01  4.9909523920419024e-01  4.9972516935401717e-01  4.9995491525173663e-01  5.0003569137526738e-01  5.0005503571614085e-01  5.0004125313026404e-01  4.9999151084068755e-01  4.9988985488881782e-01  4.9971188869058769e-01  4.9942553945075868e-01  4.9901871396747971e-01  4.9855245564274137e-01  4.9812170503503722e-01  4.9799086716900326e-01  4.9863720968247982e-01  5.0000326318397470e-01  5.0138051245639648e-01  5.0201477396108063e-01  5.0181647780249883e-01  5.0127852888623214e-01  5.0076951293790650e-01  5.0042038874000616e-01  5.0022184341089004e-01  5.0012486662281097e-01  5.0008545385494663e-01  5.0007529006120843e-01  5.0007866104008913e-01  5.0008651868162035e-01  5.0009039560015511e-01  5.0007339921246363e-01  4.9998849566521525e-01  4.9970625037003924e-01  4.9893688727907975e-01  4.9703678265248974e-01  4.9338224284377552e-01  4.8564286980140825e-01  4.7718091967588294e-01  4.7613192050313408e-01  3.8885273645997204e-01  3.9650077011599771e-01  1.6493893940102879e+00  9.7265723888058278e-02  5.6377336379259591e-01  3.6595438910050881e-01  5.0264687010388320e-01  4.7108470783626938e-01  4.9018783581045916e-01  4.9414874464090136e-01  4.9768732336864246e-01  4.9912969379268446e-01  4.9977085257419063e-01  5.0001460832668110e-01  5.0011427089781135e-01  5.0015848187728995e-01  5.0017627499594974e-01  5.0016366256164435e-01  5.0009935739728317e-01  4.9994374416165910e-01  4.9963711476576733e-01  4.9914461334468679e-01  4.9849064791767245e-01  4.9771764427707610e-01  4.9740453961345504e-01  4.9854770863087511e-01  5.0097344888207951e-01  5.0313650599008930e-01  5.0339034808388994e-01  5.0213692388210140e-01  5.0087032572824508e-01  5.0008342094940939e-01  4.9976061587708354e-01  4.9970449961625385e-01  4.9975829125127208e-01  4.9983874102156967e-01  4.9991235422804425e-01  4.9997062768142869e-01  5.0001354756973160e-01  5.0003980108968626e-01  5.0003731135068141e-01  4.9996209232740585e-01  4.9968661138818266e-01  4.9892229491181139e-01  4.9702649396234244e-01  4.9337637191820766e-01  4.8564455155503838e-01  4.7719820039028793e-01  4.7617075163650813e-01  3.8895594793939436e-01  3.9672644710122362e-01  1.6500714220562234e+00  9.7265259821090078e-02  5.6389134054744605e-01  3.6592514737817627e-01  5.0269924962481061e-01  4.7108423390435278e-01  4.9020686403339758e-01  4.9416331265324698e-01  4.9771084523012532e-01  4.9915999525293725e-01  4.9981227604345407e-01  5.0007104498491495e-01  5.0019253346269432e-01  5.0026824880825094e-01  5.0033115491117763e-01  5.0038140996419445e-01  5.0040015607866484e-01  5.0034466086812168e-01  5.0014626327034239e-01  4.9974682748287502e-01  4.9904914341781792e-01  4.9788320381977330e-01  4.9724214426876956e-01  4.9859899284645509e-01  5.0267701792235819e-01  5.0614234554815962e-01  5.0531950055758790e-01  5.0159766907220438e-01  4.9906860808227588e-01  4.9842634270858760e-01  4.9849225960229016e-01  4.9884848800859216e-01  4.9922088623480138e-01  4.9951308474139572e-01  4.9971667030501088e-01  4.9985142516197528e-01  4.9993874784190168e-01  4.9999103415140667e-01  5.0000423068270183e-01  4.9993885720697573e-01  4.9966989720038424e-01  4.9891022865956097e-01  4.9701820071469427e-01  4.9337176382695347e-01  4.8564583242630327e-01  4.7721062871505215e-01  4.7619932951309063e-01  3.8903082285432294e-01  3.9688817972939860e-01  1.6505568152024863e+00  9.7266809518060951e-02  5.6395944230885153e-01  3.6590352765656037e-01  5.0273326208169777e-01  4.7108261917143485e-01  4.9021982426473160e-01  4.9417313327992807e-01  4.9772715876839635e-01  4.9918121090147616e-01  4.9984194130496623e-01  5.0011266438922231e-01  5.0025244029678251e-01  5.0035615160278235e-01  5.0046219340556219e-01  5.0057867963284575e-01  5.0069831641818330e-01  5.0079600215844811e-01  5.0083000526640531e-01  5.0075488645905486e-01  5.0041168301515870e-01  4.9956060292289534e-01  4.9967521669414916e-01  4.9976821606551119e-01  5.0560359513808595e-01  5.1232389760614372e-01  5.0976702262999418e-01  4.9953634678248232e-01  4.9599098616371007e-01  4.9576450450727166e-01  4.9685476193354489e-01  4.9787622871065373e-01  4.9866830156461062e-01  4.9920569531592568e-01  4.9954565537132001e-01  4.9975421674204407e-01  4.9988127002508448e-01  4.9995531776422231e-01  4.9998087888286757e-01  4.9992289684943358e-01  4.9965863310070024e-01  4.9890220517933176e-01  4.9701275164097564e-01  4.9336881380652042e-01  4.8564691715311964e-01  4.7721849231635466e-01  4.7621793164235032e-01  3.8907780868457109e-01  3.9698799308111937e-01  1.6508469139988282e+00  9.7273064708059465e-02  5.6398278131784152e-01  3.6588897258895825e-01  5.0274902929136200e-01  4.7107929519024438e-01  4.9022570658200654e-01  4.9417659527854813e-01  4.9773368225972747e-01  4.9918922815553579e-01  4.9985317834655429e-01  5.0012842356134968e-01  5.0027533634259136e-01  5.0039012123754334e-01  5.0051353946159860e-01  5.0065752918239859e-01  5.0082142199894575e-01  5.0099191388629616e-01  5.0114604300937760e-01  5.0125865044409712e-01  5.0126227557249836e-01  5.0120507908374023e-01  5.0287900813149755e-01  5.0141049184557041e-01  5.1865365540543784e-01  5.1771891993693231e-01  5.1579088082073121e-01  5.1215427286287241e-01  4.9268355976012657e-01  4.9391242496252397e-01  4.9583059163951848e-01  4.9735733686194322e-01  4.9840551650766329e-01  4.9907280478764254e-01  4.9947770115604123e-01  4.9971826692867433e-01  4.9986110954244350e-01  4.9994317033121305e-01  4.9997302476890992e-01  4.9991750660018369e-01  4.9965475189371988e-01  4.9889935320989692e-01  4.9701077408934968e-01  4.9336782495780862e-01  4.8564796437600927e-01  4.7722197561872698e-01  4.7622667963927096e