<?xml version="1.0"?>
<VTKFile type="UnstructuredGrid"  version="0.1"  >
<UnstructuredGrid>
<Piece  NumberOfPoints="1617" NumberOfCells="3072">
<Points>
<DataArray  type="Float64"  NumberOfComponents="3"  format="ascii">0 0 0  0.03125 0 0  0.0625 0 0  0.09375 0 0  0.125 0 0  0.15625 0 0  0.1875 0 0  0.21875 0 0  0.25 0 0  0.28125 0 0  0.3125 0 0  0.34375 0 0  0.375 0 0  0.40625 0 0  0.4375 0 0  0.46875 0 0  0.5 0 0  0.53125 0 0  0.5625 0 0  0.59375 0 0  0.625 0 0  0.65625 0 0  0.6875 0 0  0.71875 0 0  0.75 0 0  0.78125 0 0  0.8125 0 0  0.84375 0 0  0.875 0 0  0.90625 0 0  0.9375 0 0  0.96875 0 0  1 0 0  1.03125 0 0  1.0625 0 0  1.09375 0 0  1.125 0 0  1.15625 0 0  1.1875 0 0  1.21875 0 0  1.25 0 0  1.28125 0 0  1.3125 0 0  1.34375 0 0  1.375 0 0  1.40625 0 0  1.4375 0 0  1.46875 0 0  1.5 0 0  0 0.03125 0  0.03125 0.03125 0  0.0625 0.03125 0  0.09375 0.03125 0  0.125 0.03125 0  0.15625 0.03125 0  0.1875 0.03125 0  0.21875 0.03125 0  0.25 0.03125 0  0.28125 0.03125 0  0.3125 0.03125 0  0.34375 0.03125 0  0.375 0.03125 0  0.40625 0.03125 0  0.4375 0.03125 0  0.46875 0.03125 0  0.5 0.03125 0  0.53125 0.03125 0  0.5625 0.03125 0  0.59375 0.03125 0  0.625 0.03125 0  0.65625 0.03125 0  0.6875 0.03125 0  0.71875 0.03125 0  0.75 0.03125 0  0.78125 0.03125 0  0.8125 0.03125 0  0.84375 0.03125 0  0.875 0.03125 0  0.90625 0.03125 0  0.9375 0.03125 0  0.96875 0.03125 0  1 0.03125 0  1.03125 0.03125 0  1.0625 0.03125 0  1.09375 0.03125 0  1.125 0.03125 0  1.15625 0.03125 0  1.1875 0.03125 0  1.21875 0.03125 0  1.25 0.03125 0  1.28125 0.03125 0  1.3125 0.03125 0  1.34375 0.03125 0  1.375 0.03125 0  1.40625 0.03125 0  1.4375 0.03125 0  1.46875 0.03125 0  1.5 0.03125 0  0 0.0625 0  0.03125 0.0625 0  0.0625 0.0625 0  0.09375 0.0625 0  0.125 0.0625 0  0.15625 0.0625 0  0.1875 0.0625 0  0.21875 0.0625 0  0.25 0.0625 0  0.28125 0.0625 0  0.3125 0.0625 0  0.34375 0.0625 0  0.375 0.0625 0  0.40625 0.0625 0  0.4375 0.0625 0  0.46875 0.0625 0  0.5 0.0625 0  0.53125 0.0625 0  0.5625 0.0625 0  0.59375 0.0625 0  0.625 0.0625 0  0.65625 0.0625 0  0.6875 0.0625 0  0.71875 0.0625 0  0.75 0.0625 0  0.78125 0.0625 0  0.8125 0.0625 0  0.84375 0.0625 0  0.875 0.0625 0  0.90625 0.0625 0  0.9375 0.0625 0  0.96875 0.0625 0  1 0.0625 0  1.03125 0.0625 0  1.0625 0.0625 0  1.09375 0.0625 0  1.125 0.0625 0  1.15625 0.0625 0  1.1875 0.0625 0  1.21875 0.0625 0  1.25 0.0625 0  1.28125 0.0625 0  1.3125 0.0625 0  1.34375 0.0625 0  1.375 0.0625 0  1.40625 0.0625 0  1.4375 0.0625 0  1.46875 0.0625 0  1.5 0.0625 0  0 0.09375 0  0.03125 0.09375 0  0.0625 0.09375 0  0.09375 0.09375 0  0.125 0.09375 0  0.15625 0.09375 0  0.1875 0.09375 0  0.21875 0.09375 0  0.25 0.09375 0  0.28125 0.09375 0  0.3125 0.09375 0  0.34375 0.09375 0  0.375 0.09375 0  0.40625 0.09375 0  0.4375 0.09375 0  0.46875 0.09375 0  0.5 0.09375 0  0.53125 0.09375 0  0.5625 0.09375 0  0.59375 0.09375 0  0.625 0.09375 0  0.65625 0.09375 0  0.6875 0.09375 0  0.71875 0.09375 0  0.75 0.09375 0  0.78125 0.09375 0  0.8125 0.09375 0  0.84375 0.09375 0  0.875 0.09375 0  0.90625 0.09375 0  0.9375 0.09375 0  0.96875 0.09375 0  1 0.09375 0  1.03125 0.09375 0  1.0625 0.09375 0  1.09375 0.09375 0  1.125 0.09375 0  1.15625 0.09375 0  1.1875 0.09375 0  1.21875 0.09375 0  1.25 0.09375 0  1.28125 0.09375 0  1.3125 0.09375 0  1.34375 0.09375 0  1.375 0.09375 0  1.40625 0.09375 0  1.4375 0.09375 0  1.46875 0.09375 0  1.5 0.09375 0  0 0.125 0  0.03125 0.125 0  0.0625 0.125 0  0.09375 0.125 0  0.125 0.125 0  0.15625 0.125 0  0.1875 0.125 0  0.21875 0.125 0  0.25 0.125 0  0.28125 0.125 0  0.3125 0.125 0  0.34375 0.125 0  0.375 0.125 0  0.40625 0.125 0  0.4375 0.125 0  0.46875 0.125 0  0.5 0.125 0  0.53125 0.125 0  0.5625 0.125 0  0.59375 0.125 0  0.625 0.125 0  0.65625 0.125 0  0.6875 0.125 0  0.71875 0.125 0  0.75 0.125 0  0.78125 0.125 0  0.8125 0.125 0  0.84375 0.125 0  0.875 0.125 0  0.90625 0.125 0  0.9375 0.125 0  0.96875 0.125 0  1 0.125 0  1.03125 0.125 0  1.0625 0.125 0  1.09375 0.125 0  1.125 0.125 0  1.15625 0.125 0  1.1875 0.125 0  1.21875 0.125 0  1.25 0.125 0  1.28125 0.125 0  1.3125 0.125 0  1.34375 0.125 0  1.375 0.125 0  1.40625 0.125 0  1.4375 0.125 0  1.46875 0.125 0  1.5 0.125 0  0 0.15625 0  0.03125 0.15625 0  0.0625 0.15625 0  0.09375 0.15625 0  0.125 0.15625 0  0.15625 0.15625 0  0.1875 0.15625 0  0.21875 0.15625 0  0.25 0.15625 0  0.28125 0.15625 0  0.3125 0.15625 0  0.34375 0.15625 0  0.375 0.15625 0  0.40625 0.15625 0  0.4375 0.15625 0  0.46875 0.15625 0  0.5 0.15625 0  0.53125 0.15625 0  0.5625 0.15625 0  0.59375 0.15625 0  0.625 0.15625 0  0.65625 0.15625 0  0.6875 0.15625 0  0.71875 0.15625 0  0.75 0.15625 0  0.78125 0.15625 0  0.8125 0.15625 0  0.84375 0.15625 0  0.875 0.15625 0  0.90625 0.15625 0  0.9375 0.15625 0  0.96875 0.15625 0  1 0.15625 0  1.03125 0.15625 0  1.0625 0.15625 0  1.09375 0.15625 0  1.125 0.15625 0  1.15625 0.15625 0  1.1875 0.15625 0  1.21875 0.15625 0  1.25 0.15625 0  1.28125 0.15625 0  1.3125 0.15625 0  1.34375 0.15625 0  1.375 0.15625 0  1.40625 0.15625 0  1.4375 0.15625 0  1.46875 0.15625 0  1.5 0.15625 0  0 0.1875 0  0.03125 0.1875 0  0.0625 0.1875 0  0.09375 0.1875 0  0.125 0.1875 0  0.15625 0.1875 0  0.1875 0.1875 0  0.21875 0.1875 0  0.25 0.1875 0  0.28125 0.1875 0  0.3125 0.1875 0  0.34375 0.1875 0  0.375 0.1875 0  0.40625 0.1875 0  0.4375 0.1875 0  0.46875 0.1875 0  0.5 0.1875 0  0.53125 0.1875 0  0.5625 0.1875 0  0.59375 0.1875 0  0.625 0.1875 0  0.65625 0.1875 0  0.6875 0.1875 0  0.71875 0.1875 0  0.75 0.1875 0  0.78125 0.1875 0  0.8125 0.1875 0  0.84375 0.1875 0  0.875 0.1875 0  0.90625 0.1875 0  0.9375 0.1875 0  0.96875 0.1875 0  1 0.1875 0  1.03125 0.1875 0  1.0625 0.1875 0  1.09375 0.1875 0  1.125 0.1875 0  1.15625 0.1875 0  1.1875 0.1875 0  1.21875 0.1875 0  1.25 0.1875 0  1.28125 0.1875 0  1.3125 0.1875 0  1.34375 0.1875 0  1.375 0.1875 0  1.40625 0.1875 0  1.4375 0.1875 0  1.46875 0.1875 0  1.5 0.1875 0  0 0.21875 0  0.03125 0.21875 0  0.0625 0.21875 0  0.09375 0.21875 0  0.125 0.21875 0  0.15625 0.21875 0  0.1875 0.21875 0  0.21875 0.21875 0  0.25 0.21875 0  0.28125 0.21875 0  0.3125 0.21875 0  0.34375 0.21875 0  0.375 0.21875 0  0.40625 0.21875 0  0.4375 0.21875 0  0.46875 0.21875 0  0.5 0.21875 0  0.53125 0.21875 0  0.5625 0.21875 0  0.59375 0.21875 0  0.625 0.21875 0  0.65625 0.21875 0  0.6875 0.21875 0  0.71875 0.21875 0  0.75 0.21875 0  0.78125 0.21875 0  0.8125 0.21875 0  0.84375 0.21875 0  0.875 0.21875 0  0.90625 0.21875 0  0.9375 0.21875 0  0.96875 0.21875 0  1 0.21875 0  1.03125 0.21875 0  1.0625 0.21875 0  1.09375 0.21875 0  1.125 0.21875 0  1.15625 0.21875 0  1.1875 0.21875 0  1.21875 0.21875 0  1.25 0.21875 0  1.28125 0.21875 0  1.3125 0.21875 0  1.34375 0.21875 0  1.375 0.21875 0  1.40625 0.21875 0  1.4375 0.21875 0  1.46875 0.21875 0  1.5 0.21875 0  0 0.25 0  0.03125 0.25 0  0.0625 0.25 0  0.09375 0.25 0  0.125 0.25 0  0.15625 0.25 0  0.1875 0.25 0  0.21875 0.25 0  0.25 0.25 0  0.28125 0.25 0  0.3125 0.25 0  0.34375 0.25 0  0.375 0.25 0  0.40625 0.25 0  0.4375 0.25 0  0.46875 0.25 0  0.5 0.25 0  0.53125 0.25 0  0.5625 0.25 0  0.59375 0.25 0  0.625 0.25 0  0.65625 0.25 0  0.6875 0.25 0  0.71875 0.25 0  0.75 0.25 0  0.78125 0.25 0  0.8125 0.25 0  0.84375 0.25 0  0.875 0.25 0  0.90625 0.25 0  0.9375 0.25 0  0.96875 0.25 0  1 0.25 0  1.03125 0.25 0  1.0625 0.25 0  1.09375 0.25 0  1.125 0.25 0  1.15625 0.25 0  1.1875 0.25 0  1.21875 0.25 0  1.25 0.25 0  1.28125 0.25 0  1.3125 0.25 0  1.34375 0.25 0  1.375 0.25 0  1.40625 0.25 0  1.4375 0.25 0  1.46875 0.25 0  1.5 0.25 0  0 0.28125 0  0.03125 0.28125 0  0.0625 0.28125 0  0.09375 0.28125 0  0.125 0.28125 0  0.15625 0.28125 0  0.1875 0.28125 0  0.21875 0.28125 0  0.25 0.28125 0  0.28125 0.28125 0  0.3125 0.28125 0  0.34375 0.28125 0  0.375 0.28125 0  0.40625 0.28125 0  0.4375 0.28125 0  0.46875 0.28125 0  0.5 0.28125 0  0.53125 0.28125 0  0.5625 0.28125 0  0.59375 0.28125 0  0.625 0.28125 0  0.65625 0.28125 0  0.6875 0.28125 0  0.71875 0.28125 0  0.75 0.28125 0  0.78125 0.28125 0  0.8125 0.28125 0  0.84375 0.28125 0  0.875 0.28125 0  0.90625 0.28125 0  0.9375 0.28125 0  0.96875 0.28125 0  1 0.28125 0  1.03125 0.28125 0  1.0625 0.28125 0  1.09375 0.28125 0  1.125 0.28125 0  1.15625 0.28125 0  1.1875 0.28125 0  1.21875 0.28125 0  1.25 0.28125 0  1.28125 0.28125 0  1.3125 0.28125 0  1.34375 0.28125 0  1.375 0.28125 0  1.40625 0.28125 0  1.4375 0.28125 0  1.46875 0.28125 0  1.5 0.28125 0  0 0.3125 0  0.03125 0.3125 0  0.0625 0.3125 0  0.09375 0.3125 0  0.125 0.3125 0  0.15625 0.3125 0  0.1875 0.3125 0  0.21875 0.3125 0  0.25 0.3125 0  0.28125 0.3125 0  0.3125 0.3125 0  0.34375 0.3125 0  0.375 0.3125 0  0.40625 0.3125 0  0.4375 0.3125 0  0.46875 0.3125 0  0.5 0.3125 0  0.53125 0.3125 0  0.5625 0.3125 0  0.59375 0.3125 0  0.625 0.3125 0  0.65625 0.3125 0  0.6875 0.3125 0  0.71875 0.3125 0  0.75 0.3125 0  0.78125 0.3125 0  0.8125 0.3125 0  0.84375 0.3125 0  0.875 0.3125 0  0.90625 0.3125 0  0.9375 0.3125 0  0.96875 0.3125 0  1 0.3125 0  1.03125 0.3125 0  1.0625 0.3125 0  1.09375 0.3125 0  1.125 0.3125 0  1.15625 0.3125 0  1.1875 0.3125 0  1.21875 0.3125 0  1.25 0.3125 0  1.28125 0.3125 0  1.3125 0.3125 0  1.34375 0.3125 0  1.375 0.3125 0  1.40625 0.3125 0  1.4375 0.3125 0  1.46875 0.3125 0  1.5 0.3125 0  0 0.34375 0  0.03125 0.34375 0  0.0625 0.34375 0  0.09375 0.34375 0  0.125 0.34375 0  0.15625 0.34375 0  0.1875 0.34375 0  0.21875 0.34375 0  0.25 0.34375 0  0.28125 0.34375 0  0.3125 0.34375 0  0.34375 0.34375 0  0.375 0.34375 0  0.40625 0.34375 0  0.4375 0.34375 0  0.46875 0.34375 0  0.5 0.34375 0  0.53125 0.34375 0  0.5625 0.34375 0  0.59375 0.34375 0  0.625 0.34375 0  0.65625 0.34375 0  0.6875 0.34375 0  0.71875 0.34375 0  0.75 0.34375 0  0.78125 0.34375 0  0.8125 0.34375 0  0.84375 0.34375 0  0.875 0.34375 0  0.90625 0.34375 0  0.9375 0.34375 0  0.96875 0.34375 0  1 0.34375 0  1.03125 0.34375 0  1.0625 0.34375 0  1.09375 0.34375 0  1.125 0.34375 0  1.15625 0.34375 0  1.1875 0.34375 0  1.21875 0.34375 0  1.25 0.34375 0  1.28125 0.34375 0  1.3125 0.34375 0  1.34375 0.34375 0  1.375 0.34375 0  1
[...]
<PointData  Scalars="f_65"> 
<DataArray  type="Float64"  Name="f_65"  format="ascii">3.2695205532499327e-01  3.2285227514239184e-01  3.0994671185491424e-01  3.4018602910210022e-01  3.5595969854640541e-01  3.7020305498195971e-01  3.8130372019448655e-01  3.9005634864685051e-01  3.9741432789594405e-01  4.0405209671443809e-01  4.1039208420748435e-01  4.1664883723742324e-01  4.2292043046025801e-01  4.2925014829907726e-01  4.3565948233184448e-01  4.4216281204068131e-01  4.4877287508763403e-01  4.5550237745688998e-01  4.6236407502941662e-01  4.6937023473949724e-01  4.7653183838976848e-01  4.8385773223049811e-01  4.9135389339493185e-01  4.9902296841357846e-01  5.0686419742657618e-01  5.1487376317562394e-01  5.2304551122347831e-01  5.3137190466732853e-01  5.3984503021257735e-01  5.4845747690973556e-01  5.5720295698803390e-01  5.6607660800580439e-01  5.7507497171793753e-01  5.8419567548031004e-01  5.9343674729065032e-01  6.0279537129453464e-01  6.1226451885461530e-01  6.2182500063770285e-01  6.3141757115422226e-01  6.4088986401980086e-01  6.4985018704927744e-01  6.5754352394566906e-01  6.6255766053152765e-01  6.6276206218666844e-01  6.6006331565494170e-01  6.3259669979529354e-01  5.7715526377208581e-01  7.9598366616779004e-01  1.0696371095619466e+00  5.6785203171610754e-01  5.4917975524804019e-01  4.4610278595542602e-01  4.9549001677711024e-01  5.0852821599939635e-01  5.1748902357747761e-01  5.2276778313866445e-01  5.2526731932963711e-01  5.2594939457598244e-01  5.2567720089868619e-01  5.2496149661329816e-01  5.2405493303493567e-01  5.2306805308791726e-01  5.2204341610479355e-01  5.2099692933852026e-01  5.1993507462341382e-01  5.1886110285334519e-01  5.1777683672628838e-01  5.1668293450179381e-01  5.1557868103717996e-01  5.1446169616342274e-01  5.1332774473291121e-01  5.1217076583597843e-01  5.1098318982867064e-01  5.0975654630610434e-01  5.0848228791199357e-01  5.0715268624963661e-01  5.0576162353264742e-01  5.0430512262252825e-01  5.0278152382133878e-01  5.0119130326791606e-01  4.9953660242204728e-01  4.9782056748217912e-01  4.9604657830523674e-01  4.9421728742553694e-01  4.9233315443364017e-01  4.9038877864498698e-01  4.8836394569954866e-01  4.8619635578337395e-01  4.8372720727596558e-01  4.8057866752768863e-01  4.7603894750583287e-01  4.6888391157921572e-01  4.5783359790887562e-01  4.4388804291051959e-01  4.1789385562980763e-01  3.6825558731543317e-01  5.2502768126845578e-01  6.5349190001797608e-01  5.9925215828235401e-01  5.2925369108997411e-01  3.9381801106240766e-01  4.6846003793121604e-01  4.7864242435304849e-01  4.8654234251880135e-01  4.9286380221455944e-01  4.9642289973937692e-01  4.9815755727039940e-01  4.9898063805430481e-01  4.9938302392843442e-01  4.9962380606738638e-01  4.9981254261592850e-01  4.9998976224989827e-01  5.0016934580904071e-01  5.0035607979272723e-01  5.0055211130614241e-01  5.0075885488355143e-01  5.0097742421693359e-01  5.0120862591048376e-01  5.0145284321994288e-01  5.0170991693429756e-01  5.0197906997412289e-01  5.0225890564290654e-01  5.0254749910128449e-01  5.0284258642280333e-01  5.0314183158707537e-01  5.0344312346245557e-01  5.0374483605983844e-01  5.0404599106968651e-01  5.0434629158046096e-01  5.0464603290276566e-01  5.0494591185174054e-01  5.0524673617227467e-01  5.0554888888995320e-01  5.0585110979578596e-01  5.0614676985411022e-01  5.0641401318832158e-01  5.0658705141632820e-01  5.0650033455491894e-01  5.0577072818137658e-01  5.0370782431074979e-01  4.9916297029967077e-01  4.9121727021123052e-01  4.8086760920334087e-01  4.5858964508508920e-01  4.2288313785958004e-01  5.9105679864301852e-01  7.3865017514367581e-01  6.0457680085738941e-01  5.2674653070976329e-01  3.9370087551915361e-01  4.7672762554474118e-01  4.8014670343423788e-01  4.8764033629345072e-01  4.9458389630975058e-01  4.9799251029735775e-01  4.9964227593472643e-01  5.0036046889299157e-01  5.0064311629842806e-01  5.0075747612890564e-01  5.0081026365088299e-01  5.0084127039487480e-01  5.0086310958081726e-01  5.0087977527252703e-01  5.0089296583979670e-01  5.0090390567476528e-01  5.0091375987415609e-01  5.0092360692881033e-01  5.0093426892868553e-01  5.0094609171725946e-01  5.0095873036855365e-01  5.0097100376347481e-01  5.0098088884385428e-01  5.0098570630780392e-01  5.0098249222413860e-01  5.0096846957028396e-01  5.0094147705644243e-01  5.0090022632395170e-01  5.0084433558219987e-01  5.0077417420000259e-01  5.0069059044618158e-01  5.0059456869232943e-01  5.0048669073393026e-01  5.0036597094537461e-01  5.0022619674020918e-01  5.0004629221308539e-01  4.9976197296990765e-01  4.9921271945339663e-01  4.9802932275670031e-01  4.9556255527880411e-01  4.9074818848591695e-01  4.8281056030249642e-01  4.7301838532534840e-01  4.5140596332670857e-01  4.1543900556162577e-01  5.8092306326195486e-01  7.1810977791943997e-01  6.0908230111342210e-01  5.2936798875374858e-01  3.9628613359123760e-01  4.7893135658758712e-01  4.7859139173213022e-01  4.8716964340266816e-01  4.9413007771501954e-01  4.9716393403757836e-01  4.9877518710714308e-01  4.9943446945260050e-01  4.9968721619476769e-01  4.9978025230196882e-01  4.9981636324804662e-01  4.9983378123654332e-01  4.9984409780977312e-01  4.9985132649912339e-01  4.9985742462128230e-01  4.9986410922228108e-01  4.9987327209309784e-01  4.9988694388826088e-01  4.9990705411956915e-01  4.9993507164323919e-01  4.9997158600518860e-01  5.0001594694578766e-01  5.0006611804224921e-01  5.0011888439405050e-01  5.0017043839847786e-01  5.0021717715317793e-01  5.0025641069443083e-01  5.0028672972227228e-01  5.0030797127297355e-01  5.0032089838550931e-01  5.0032676509093221e-01  5.0032687631578598e-01  5.0032203350299864e-01  5.0031142759845060e-01  5.0028910016871242e-01  5.0023452807296764e-01  5.0008484178524726e-01  4.9968314117793150e-01  4.9867022447038434e-01  4.9641838481078082e-01  4.9190736295919163e-01  4.8441993504904124e-01  4.7521718145073377e-01  4.5449554824364435e-01  4.1944697322151930e-01  5.8649457847621844e-01  7.2685625145370536e-01  6.1192306200682678e-01  5.3137761390356963e-01  3.9772192696332881e-01  4.7969022525780436e-01  4.7856726428517954e-01  4.8793330004262547e-01  4.9441419772196521e-01  4.9728125198538986e-01  4.9892201437036249e-01  4.9953256021057990e-01  4.9976645626649141e-01  4.9983422541414707e-01  4.9984574284550787e-01  4.9983711768323802e-01  4.9982026457605272e-01  4.9979963952136564e-01  4.9977767076234231e-01  4.9975680565209746e-01  4.9973998190593305e-01  4.9973057139110977e-01  4.9973199812564417e-01  4.9974710368810993e-01  4.9977731065019609e-01  4.9982185022935832e-01  4.9987739238798162e-01  4.9993842586149173e-01  4.9999846460688441e-01  5.0005166022874170e-01  5.0009409530379911e-01  5.0012425887131440e-01  5.0014271573849289e-01  5.0015133628049868e-01  5.0015247908978089e-01  5.0014833174719842e-01  5.0014029024130635e-01  5.0012788547356701e-01  5.0010533019303871e-01  5.0005225023516708e-01  4.9990619196856961e-01  4.9951182432909458e-01  4.9851446629286084e-01  4.9629840000998771e-01  4.9186417926751302e-01  4.8453533364447554e-01  4.7556052918379799e-01  4.5521984569073876e-01  4.2046025688372080e-01  5.8797761887386724e-01  7.2845942770274641e-01  6.1380210628076903e-01  5.3275812298605829e-01  3.9830811870436961e-01  4.8001922974866174e-01  4.7879485099910229e-01  4.8825487628513076e-01  4.9438380006914806e-01  4.9731180954847515e-01  4.9896742908467567e-01  4.9955106857616161e-01  4.9978664771544662e-01  4.9984472232496080e-01  4.9984762111972059e-01  4.9982709810320619e-01  4.9979654692634973e-01  4.9976046875408503e-01  4.9972172954292182e-01  4.9968361788071985e-01  4.9965049809794121e-01  4.9962773055753934e-01  4.9962117780017423e-01  4.9963608770956686e-01  4.9967542047493146e-01  4.9973823774771570e-01  4.9981879738959617e-01  4.9990730098167235e-01  4.9999251776338449e-01  5.0006512003058645e-01  5.0011993499236940e-01  5.0015624189147467e-01  5.0017655731941202e-01  5.0018492543382143e-01  5.0018549380771060e-01  5.0018163253316017e-01  5.0017534927544560e-01  5.0016636005089210e-01  5.0014878652788686e-01  5.0010202371985202e-01  4.9996338276911223e-01  4.9957770838345783e-01  4.9859180866902092e-01  4.9639521187458818e-01  4.9199936160102720e-01  4.8475262294541166e-01  4.7590097571967133e-01  4.5581146158359676e-01  4.2135317872388434e-01  5.8950253217190940e-01  7.3052902931363783e-01  6.1498023119403789e-01  5.3365571734603967e-01  3.9855283508109901e-01  4.8026516764571164e-01  4.7893651755069500e-01  4.8833634538939108e-01  4.9437454937855907e-01  4.9737706586540326e-01  4.9901003623197171e-01  4.9958869700234576e-01  4.9982936082659474e-01  4.9988163954224185e-01  4.9987897437664469e-01  4.9984849192516217e-01  4.9980534350442396e-01  4.9975323082281009e-01  4.9969528368615768e-01  4.9963564553242668e-01  4.9958056056969774e-01  4.9953845193304630e-01  4.9951955729488989e-01  4.9953374134112399e-01  4.9958718262664387e-01  4.9967893056251195e-01  4.9979849616176386e-01  4.9992751640750310e-01  5.0004592932404612e-01  5.0013908826744868e-01  5.0020131585741334e-01  5.0023489866295467e-01  5.0024661525441960e-01  5.0024428762550166e-01  5.0023460517198848e-01  5.0022224133347637e-01  5.0020960047040031e-01  5.0019625972106596e-01  5.0017594533305232e-01  5.0012757428318677e-01  4.9998799420105866e-01  4.9960179865250248e-01  4.9861622107278741e-01  4.9642349530502472e-01  4.9204141317507138e-01  4.8483609385221410e-01  4.7605320222697928e-01  4.5612953061573119e-01  4.2189143423019848e-01  5.9054503555140259e-01  7.3210502686434276e-01  6.1575079858013737e-01  5.3427264646855022e-01  3.9863745693545183e-01  4.8040417412638797e-01  4.7895263647172637e-01  4.8834016929222412e-01  4.9437019357603779e-01  4.9739477773379270e-01  4.9901276971479319e-01  4.9960308407949039e-01  4.9984807468433645e-01  4.9989906003486589e-01  4.9989411431387731e-01  4.9985671640169360e-01  4.9980264800045993e-01  4.9973386168851780e-01  4.9965322812114515e-01  4.9956535078264402e-01  4.9947858380381288e-01  4.9940626561062945e-01  4.9936674945553955e-01  4.9937886942573378e-01  4.9945596812819570e-01  4.9959779077025035e-01  4.9978365907536937e-01  4.9997711706334630e-01  5.0014158229874039e-01  5.0025555642997677e-01  5.0031652003448834e-01  5.0033502728432344e-01  5.0032617758590081e-01  5.0030356228937967e-01  5.0027677170944773e-01  5.0025128714408396e-01  5.0022916653576821e-01  5.0020918442488460e-01  5.0018420706927014e-01  5.0013241528299701e-01  4.9999009336797673e-01  4.9960151089578142e-01  4.9861402109836028e-01  4.9642144912253294e-01  4.9204569794642994e-01  4.8486567979769890e-01  4.7612819048243982e-01  4.5632580834470166e-01  4.2226236626029123e-01  5.9133551037194976e-01  7.3339112530668371e-01  6.1629193573161889e-01  5.3473280358472242e-01  3.9867250596978632e-01  4.8051446831198968e-01  4.7895949007962235e-01  4.8836271413144405e-01  4.9438346629652524e-01  4.9741289597256882e-01  4.9903246504422349e-01  4.9963334340381094e-01  4.9988008172281373e-01  4.9993215746353209e-01  4.9992612145482307e-01  4.9988302294722353e-01  4.9981753330751555e-01  4.9972870492613153e-01  4.9961786753129600e-01  4.9948837859188139e-01  4.9935053636323190e-01  4.9922584787530627e-01  4.9914715173912488e-01  4.9915088406364561e-01  4.9926737289669704e-01  4.9949869475948111e-01  4.9979984121114374e-01  5.0009446655229195e-01  5.0031625864975460e-01  5.0043975617876812e-01  5.0047721688862601e-01  5.0045821847010008e-01  5.0041179376672174e-01  5.0035839756864131e-01  5.0030927784270840e-01  5.0026890231905274e-01  5.0023744197721365e-01  5.0021183932500091e-01  5.0018352991629511e-01  5.0012971569483589e-01  4.9998608342658474e-01  4.9959662133172356e-01  4.9860876662077402e-01  4.9641743690854934e-01  4.9204745649852916e-01  4.8488711387822048e-01  4.7618525578442117e-01  4.5647775522523237e-01  4.2255359717904439e-01  5.9197615848895180e-01  7.3448700365476749e-01  6.1669040870413572e-01  5.3508706207602663e-01  3.9868900894496373e-01  4.8060952596419287e-01  4.7896809760959280e-01  4.8839153242951033e-01  4.9440070116886825e-01  4.9743772654283769e-01  4.9906426589093100e-01  4.9967252451281025e-01  4.9992370501626321e-01  4.9998089302212761e-01  4.9997740502131405e-01  4.9993253282500905e-01  4.9985798114212082e-01  4.9974815353263263e-01  4.9960004601376201e-01  4.9941142684011575e-01  4.9919439436772284e-01  4.9898188871034599e-01  4.9883060979197558e-01  4.9881300878868323e-01  4.9900073888368429e-01  4.9940014097783869e-01  4.9990445589279864e-01  5.0034897156860314e-01  5.0062037895912281e-01  5.0071089600877816e-01  5.0067722730446507e-01  5.0058541117638855e-01  5.0048203455319340e-01  5.0039066617189054e-01  5.0031909817747400e-01  5.0026687302738160e-01  5.0022998565843024e-01  5.0020247005017526e-01  5.0017396577193218e-01  5.0012068543487820e-01  4.9997785876032569e-01  4.9958935458900811e-01  4.9860277847965973e-01  4.9641389725050611e-01  4.9204975835108311e-01  4.8490558873327883e-01  4.7623311972506277e-01  4.5660149301477476e-01  4.2278907464570503e-01  5.9250043364905025e-01  7.3541452635809446e-01  6.1698842509878871e-01  5.3535992675045252e-01  3.9869671697005243e-01  4.8069134679065778e-01  4.7897814523236737e-01  4.8842223141180985e-01  4.9442231327503067e-01  4.9746921531150951e-01  4.9910330239738970e-01  4.9972007239351263e-01  4.9998054309513562e-01  5.0004789632784652e-01  5.0005351170588619e-01  5.0001485130149737e-01  4.9993921056813939e-01  4.9981415918990180e-01  4.9962732402110555e-01  4.9936379194284702e-01  4.9903611940296955e-01  4.9868329098097330e-01  4.9840016143928623e-01  4.9833175065460056e-01  4.9865072803028720e-01  4.9936956037516544e-01  5.0022271688522046e-01  5.0085297771179083e-01  5.0109681134561779e-01  5.0104368893245421e-01  5.0085564818063422e-01  5.0065154783235932e-01  5.0048391233486544e-01  5.0036353246653131e-01  5.0028325221584935e-01  5.0023203462240984e-01  5.0019983954104952e-01  5.0017775047659296e-01  5.0015418417015578e-01  5.0010500632511923e-01  4.9996552134056055e-01  4.9957985656405929e-01  4.9859600521243119e-01  4.9641051106543904e-01  4.9205222408003030e-01  4.8492152578342174e-01  4.7627364032876562e-01  4.5670284061977379e-01  4.2298034768757625e-01  5.9292804379652353e-01  7.3618967590690521e-01  6.1720935592064519e-01  5.3556610499646540e-01  3.9869881635028964e-01  4.8075950008995544e-01  4.7898799783192331e-01  4.8845193122814862e-01  4.9444571201912663e-01  4.9750318567471047e-01  4.9914594944554869e-01  4.9977420084370333e-01  5.0004863899049279e-01  5.0013257749071538e-01  5.0015719756204524e-01  5.0013852586365981e-01  5.0007952809670042e-01  4.9995931547311429e-01  4.9974994542161327e-01  4.9941555078570810e-01  4.9895700158864137e-01  4.9839102466355933e-01  4.9787609533870125e-01  4.9768746871506275e-01  4.9825277844621835e-01  4.9957046650172593e-01  5.0098554825134534e-01  5.0175182376485683e-01  5.0171175584863070e-01  5.0128469811568943e-01  5.0083831077995677e-01  5.0051508350516327e-01  5.0032310131570934e-01  5.0022159954815804e-01  5.0017255940200489e-01  5.0015060849415716e-01  5.0014139096709687e-01  5.0013600647920142e-01  5.0012420180153605e-01  5.0008326583176999e-01  4.9994968575737675e-01  4.9956849749967658e-01  4.9858843337664205e-01  4.9640686258938521e-01  4.9205417919397382e-01  4.8493457323396316e-01  4.7630702771702843e-01  4.5678423473119678e-01  4.2313318715486059e-01  5.9326928333006790e-01  7.3681986709711622e-01  6.1736838454420107e-01  5.3571627587016413e-01  3.9869704686835811e-01  4.8081388949984377e-01  4.7899656009860986e-01  4.8847850588273939e-01  4.9446828553074618e-01  4.9753631432921225e-01  4.9918870806548910e-01  4.9983053538225591e-01  5.0012262152197140e-01  5.0022981693625268e-01  5.0028498700399626e-01  5.0030495682680964e-01  5.0029137088931808e-01  5.0021716828222795e-01  5.0003888994465329e-01  4.9969728853436679e-01  4.9915581836704825e-01  4.9836471017482042e-01  4.9754648950565400e-01  4.9708985343968720e-01  4.9798158338286774e-01  5.0026781542032417e-01  5.0260667220842159e-01  5.0319841974638257e-01  5.0219965469998429e-01  5.0105616015126730e-01  5.0029979026125315e-01  4.9996900589135684e-01  4.9988536318314986e-01  4.9991137335668634e-01  4.9996616154536044e-01  5.0001720478326916e-01  5.0005554161030241e-01  5.0008009393006381e-01  5.0008702088085499e-01  5.0005798277296809e-01  4.9993223711223517e-01  4.9955654021302004e-01  4.9858075661468571e-01  4.9640316884076641e-01  4.9205552559422361e-01  4.8494476633098987e-01  4.7633350193428248e-01  4.5684724617030764e-01  4.2325117735258488e-01  5.9353040587205830e-01  7.3730913210486493e-01  6.1747604324082495e-01  5.3581835061251915e-01  3.9869241179645198e-01  4.8085439076518183e-01  4.7900284337891536e-01  4.8850001436232537e-01  4.9448735305557662e-01  4.9756480848331330e-01  4.9922632160686675e-01  4.9988163055286650e-01  5.0019237890729995e-01  5.0032620184118759e-01  5.0041962926801908e-01  5.0049393977989154e-01  5.0055572502829393e-01  5.0058176395490406e-01  5.0052854767706345e-01  5.0032829186585248e-01  4.9989206492074800e-01  4.9905226065331432e-01  4.9789741083030015e-01  4.9661303726884498e-01  4.9734025519464947e-01  5.0159762228049809e-01  5.0574344240092639e-01  5.0563227966233359e-01  5.0240293844373418e-01  4.9963669302437719e-01  4.9889567560716580e-01  4.9886333842671493e-01  4.9913366034063633e-01  4.9943835383799096e-01  4.9968194072727734e-01  4.9984946276612180e-01  4.9995611175371923e-01  5.0001987423858596e-01  5.0004937574523212e-01  5.0003365298946945e-01  4.9991611819960324e-01  4.9954583961504911e-01  4.9857404147538847e-01  4.9639992457044901e-01  4.9205638423363540e-01  4.8495221905412955e-01  4.7635314653367405e-01  4.5689275482557667e-01  4.2333637079964626e-01  5.9371489786726406e-01  7.3765917850190821e-01  6.1753948170468187e-01  5.3587788074398301e-01  3.9868537574575785e-01  4.8088073218233152e-01  4.7900586795819722e-01  4.8851459546440795e-01  4.9450018759985565e-01  4.9758455062112106e-01  4.9925263286896993e-01  4.9991816905487718e-01  5.0024369119792744e-01  5.0039971196183908e-01  5.0052693464020015e-01  5.0065293040995118e-01  5.0079391556048369e-01  5.0094125879470008e-01  5.0107353637404506e-01  5.0115253161782292e-01  5.0111347404485362e-01  5.0083232696064706e-01  5.0040654425881681e-01  4.9963057693774243e-01  4.9854064261431208e-01  5.0470932151983217e-01  5.1492495006832373e-01  5.1339114360863469e-01  5.0026799610693662e-01  4.9776644633605793e-01  4.9661871097222371e-01  4.9741783520832122e-01  4.9826560742906173e-01  4.9894398529929634e-01  4.9940831826385190e-01  4.9969933239625758e-01  4.9987283702211333e-01  4.9997228918423597e-01  5.0002102488314437e-01  5.0001599877823355e-01  4.9990473143785152e-01  4.9953840589755089e-01  4.9856941246399961e-01  4.9639766958879417e-01  4.9205692528719269e-01  4.8495702163633703e-01  4.7636593667349914e-01  4.5692118519198099e-01  4.2338986575614562e-01  5.9382453462083207e-01  7.3787039386691466e-01  6.1756289390616159e-01  5.3589819021380103e-01  3.9867601843857198e-01  4.8089264677547094e-01  4.7900488890979537e-01  4.8852086644974890e-01  4.9450471327847023e-01  4.9759227863006661e-01  4.9926252009375438e-01  4.9993192584332757e-01  5.0026305667231130e-01  5.0042770338855891e-01  5.0056828038385071e-01  5.0071514855392740e-01  5.0088928306459313e-01  5.0109035386411127e-01  5.0131195771220294e-01  5.0154438761653997e-01  5.0179161639656955e-01  5.0212416976726904e-01  5.0299913810542596e-01  5.0471714862868833e-01  5.0120501254933048e-01  5.2511521124345129e-01  5.2215962117699588e-01  5.2410536310796507e-01  5.2168576425807067e-01  4.9308728069406887e-01  4.9528209929019795e-01  4.9651941484806533e-01  4.9779792668912876e-01  4.9870689125683743e-01  4.9928791577333803e-01  4.9963863863272678e-01  4.9984155740187747e-01  4.9995541400864774e-01  5.0001132593215580e-01  5.0001004192940179e-01  4.9990086577655990e-01  4.9953581144765780e-01  4.9856773009599309e-01  4.9639682357822301e-01  4.9205730246989260e-01  4.8495924875863949e-01  4.7637184970315721e-01  4.5693274470942125e