<?xml version="1.0"?>
<VTKFile type="UnstructuredGrid"  version="0.1"  >
<UnstructuredGrid>
<Piece  NumberOfPoints="1617" NumberOfCells="3072">
<Points>
<DataArray  type="Float64"  NumberOfComponents="3"  format="ascii">0 0 0  0.03125 0 0  0.0625 0 0  0.09375 0 0  0.125 0 0  0.15625 0 0  0.1875 0 0  0.21875 0 0  0.25 0 0  0.28125 0 0  0.3125 0 0  0.34375 0 0  0.375 0 0  0.40625 0 0  0.4375 0 0  0.46875 0 0  0.5 0 0  0.53125 0 0  0.5625 0 0  0.59375 0 0  0.625 0 0  0.65625 0 0  0.6875 0 0  0.71875 0 0  0.75 0 0  0.78125 0 0  0.8125 0 0  0.84375 0 0  0.875 0 0  0.90625 0 0  0.9375 0 0  0.96875 0 0  1 0 0  1.03125 0 0  1.0625 0 0  1.09375 0 0  1.125 0 0  1.15625 0 0  1.1875 0 0  1.21875 0 0  1.25 0 0  1.28125 0 0  1.3125 0 0  1.34375 0 0  1.375 0 0  1.40625 0 0  1.4375 0 0  1.46875 0 0  1.5 0 0  0 0.03125 0  0.03125 0.03125 0  0.0625 0.03125 0  0.09375 0.03125 0  0.125 0.03125 0  0.15625 0.03125 0  0.1875 0.03125 0  0.21875 0.03125 0  0.25 0.03125 0  0.28125 0.03125 0  0.3125 0.03125 0  0.34375 0.03125 0  0.375 0.03125 0  0.40625 0.03125 0  0.4375 0.03125 0  0.46875 0.03125 0  0.5 0.03125 0  0.53125 0.03125 0  0.5625 0.03125 0  0.59375 0.03125 0  0.625 0.03125 0  0.65625 0.03125 0  0.6875 0.03125 0  0.71875 0.03125 0  0.75 0.03125 0  0.78125 0.03125 0  0.8125 0.03125 0  0.84375 0.03125 0  0.875 0.03125 0  0.90625 0.03125 0  0.9375 0.03125 0  0.96875 0.03125 0  1 0.03125 0  1.03125 0.03125 0  1.0625 0.03125 0  1.09375 0.03125 0  1.125 0.03125 0  1.15625 0.03125 0  1.1875 0.03125 0  1.21875 0.03125 0  1.25 0.03125 0  1.28125 0.03125 0  1.3125 0.03125 0  1.34375 0.03125 0  1.375 0.03125 0  1.40625 0.03125 0  1.4375 0.03125 0  1.46875 0.03125 0  1.5 0.03125 0  0 0.0625 0  0.03125 0.0625 0  0.0625 0.0625 0  0.09375 0.0625 0  0.125 0.0625 0  0.15625 0.0625 0  0.1875 0.0625 0  0.21875 0.0625 0  0.25 0.0625 0  0.28125 0.0625 0  0.3125 0.0625 0  0.34375 0.0625 0  0.375 0.0625 0  0.40625 0.0625 0  0.4375 0.0625 0  0.46875 0.0625 0  0.5 0.0625 0  0.53125 0.0625 0  0.5625 0.0625 0  0.59375 0.0625 0  0.625 0.0625 0  0.65625 0.0625 0  0.6875 0.0625 0  0.71875 0.0625 0  0.75 0.0625 0  0.78125 0.0625 0  0.8125 0.0625 0  0.84375 0.0625 0  0.875 0.0625 0  0.90625 0.0625 0  0.9375 0.0625 0  0.96875 0.0625 0  1 0.0625 0  1.03125 0.0625 0  1.0625 0.0625 0  1.09375 0.0625 0  1.125 0.0625 0  1.15625 0.0625 0  1.1875 0.0625 0  1.21875 0.0625 0  1.25 0.0625 0  1.28125 0.0625 0  1.3125 0.0625 0  1.34375 0.0625 0  1.375 0.0625 0  1.40625 0.0625 0  1.4375 0.0625 0  1.46875 0.0625 0  1.5 0.0625 0  0 0.09375 0  0.03125 0.09375 0  0.0625 0.09375 0  0.09375 0.09375 0  0.125 0.09375 0  0.15625 0.09375 0  0.1875 0.09375 0  0.21875 0.09375 0  0.25 0.09375 0  0.28125 0.09375 0  0.3125 0.09375 0  0.34375 0.09375 0  0.375 0.09375 0  0.40625 0.09375 0  0.4375 0.09375 0  0.46875 0.09375 0  0.5 0.09375 0  0.53125 0.09375 0  0.5625 0.09375 0  0.59375 0.09375 0  0.625 0.09375 0  0.65625 0.09375 0  0.6875 0.09375 0  0.71875 0.09375 0  0.75 0.09375 0  0.78125 0.09375 0  0.8125 0.09375 0  0.84375 0.09375 0  0.875 0.09375 0  0.90625 0.09375 0  0.9375 0.09375 0  0.96875 0.09375 0  1 0.09375 0  1.03125 0.09375 0  1.0625 0.09375 0  1.09375 0.09375 0  1.125 0.09375 0  1.15625 0.09375 0  1.1875 0.09375 0  1.21875 0.09375 0  1.25 0.09375 0  1.28125 0.09375 0  1.3125 0.09375 0  1.34375 0.09375 0  1.375 0.09375 0  1.40625 0.09375 0  1.4375 0.09375 0  1.46875 0.09375 0  1.5 0.09375 0  0 0.125 0  0.03125 0.125 0  0.0625 0.125 0  0.09375 0.125 0  0.125 0.125 0  0.15625 0.125 0  0.1875 0.125 0  0.21875 0.125 0  0.25 0.125 0  0.28125 0.125 0  0.3125 0.125 0  0.34375 0.125 0  0.375 0.125 0  0.40625 0.125 0  0.4375 0.125 0  0.46875 0.125 0  0.5 0.125 0  0.53125 0.125 0  0.5625 0.125 0  0.59375 0.125 0  0.625 0.125 0  0.65625 0.125 0  0.6875 0.125 0  0.71875 0.125 0  0.75 0.125 0  0.78125 0.125 0  0.8125 0.125 0  0.84375 0.125 0  0.875 0.125 0  0.90625 0.125 0  0.9375 0.125 0  0.96875 0.125 0  1 0.125 0  1.03125 0.125 0  1.0625 0.125 0  1.09375 0.125 0  1.125 0.125 0  1.15625 0.125 0  1.1875 0.125 0  1.21875 0.125 0  1.25 0.125 0  1.28125 0.125 0  1.3125 0.125 0  1.34375 0.125 0  1.375 0.125 0  1.40625 0.125 0  1.4375 0.125 0  1.46875 0.125 0  1.5 0.125 0  0 0.15625 0  0.03125 0.15625 0  0.0625 0.15625 0  0.09375 0.15625 0  0.125 0.15625 0  0.15625 0.15625 0  0.1875 0.15625 0  0.21875 0.15625 0  0.25 0.15625 0  0.28125 0.15625 0  0.3125 0.15625 0  0.34375 0.15625 0  0.375 0.15625 0  0.40625 0.15625 0  0.4375 0.15625 0  0.46875 0.15625 0  0.5 0.15625 0  0.53125 0.15625 0  0.5625 0.15625 0  0.59375 0.15625 0  0.625 0.15625 0  0.65625 0.15625 0  0.6875 0.15625 0  0.71875 0.15625 0  0.75 0.15625 0  0.78125 0.15625 0  0.8125 0.15625 0  0.84375 0.15625 0  0.875 0.15625 0  0.90625 0.15625 0  0.9375 0.15625 0  0.96875 0.15625 0  1 0.15625 0  1.03125 0.15625 0  1.0625 0.15625 0  1.09375 0.15625 0  1.125 0.15625 0  1.15625 0.15625 0  1.1875 0.15625 0  1.21875 0.15625 0  1.25 0.15625 0  1.28125 0.15625 0  1.3125 0.15625 0  1.34375 0.15625 0  1.375 0.15625 0  1.40625 0.15625 0  1.4375 0.15625 0  1.46875 0.15625 0  1.5 0.15625 0  0 0.1875 0  0.03125 0.1875 0  0.0625 0.1875 0  0.09375 0.1875 0  0.125 0.1875 0  0.15625 0.1875 0  0.1875 0.1875 0  0.21875 0.1875 0  0.25 0.1875 0  0.28125 0.1875 0  0.3125 0.1875 0  0.34375 0.1875 0  0.375 0.1875 0  0.40625 0.1875 0  0.4375 0.1875 0  0.46875 0.1875 0  0.5 0.1875 0  0.53125 0.1875 0  0.5625 0.1875 0  0.59375 0.1875 0  0.625 0.1875 0  0.65625 0.1875 0  0.6875 0.1875 0  0.71875 0.1875 0  0.75 0.1875 0  0.78125 0.1875 0  0.8125 0.1875 0  0.84375 0.1875 0  0.875 0.1875 0  0.90625 0.1875 0  0.9375 0.1875 0  0.96875 0.1875 0  1 0.1875 0  1.03125 0.1875 0  1.0625 0.1875 0  1.09375 0.1875 0  1.125 0.1875 0  1.15625 0.1875 0  1.1875 0.1875 0  1.21875 0.1875 0  1.25 0.1875 0  1.28125 0.1875 0  1.3125 0.1875 0  1.34375 0.1875 0  1.375 0.1875 0  1.40625 0.1875 0  1.4375 0.1875 0  1.46875 0.1875 0  1.5 0.1875 0  0 0.21875 0  0.03125 0.21875 0  0.0625 0.21875 0  0.09375 0.21875 0  0.125 0.21875 0  0.15625 0.21875 0  0.1875 0.21875 0  0.21875 0.21875 0  0.25 0.21875 0  0.28125 0.21875 0  0.3125 0.21875 0  0.34375 0.21875 0  0.375 0.21875 0  0.40625 0.21875 0  0.4375 0.21875 0  0.46875 0.21875 0  0.5 0.21875 0  0.53125 0.21875 0  0.5625 0.21875 0  0.59375 0.21875 0  0.625 0.21875 0  0.65625 0.21875 0  0.6875 0.21875 0  0.71875 0.21875 0  0.75 0.21875 0  0.78125 0.21875 0  0.8125 0.21875 0  0.84375 0.21875 0  0.875 0.21875 0  0.90625 0.21875 0  0.9375 0.21875 0  0.96875 0.21875 0  1 0.21875 0  1.03125 0.21875 0  1.0625 0.21875 0  1.09375 0.21875 0  1.125 0.21875 0  1.15625 0.21875 0  1.1875 0.21875 0  1.21875 0.21875 0  1.25 0.21875 0  1.28125 0.21875 0  1.3125 0.21875 0  1.34375 0.21875 0  1.375 0.21875 0  1.40625 0.21875 0  1.4375 0.21875 0  1.46875 0.21875 0  1.5 0.21875 0  0 0.25 0  0.03125 0.25 0  0.0625 0.25 0  0.09375 0.25 0  0.125 0.25 0  0.15625 0.25 0  0.1875 0.25 0  0.21875 0.25 0  0.25 0.25 0  0.28125 0.25 0  0.3125 0.25 0  0.34375 0.25 0  0.375 0.25 0  0.40625 0.25 0  0.4375 0.25 0  0.46875 0.25 0  0.5 0.25 0  0.53125 0.25 0  0.5625 0.25 0  0.59375 0.25 0  0.625 0.25 0  0.65625 0.25 0  0.6875 0.25 0  0.71875 0.25 0  0.75 0.25 0  0.78125 0.25 0  0.8125 0.25 0  0.84375 0.25 0  0.875 0.25 0  0.90625 0.25 0  0.9375 0.25 0  0.96875 0.25 0  1 0.25 0  1.03125 0.25 0  1.0625 0.25 0  1.09375 0.25 0  1.125 0.25 0  1.15625 0.25 0  1.1875 0.25 0  1.21875 0.25 0  1.25 0.25 0  1.28125 0.25 0  1.3125 0.25 0  1.34375 0.25 0  1.375 0.25 0  1.40625 0.25 0  1.4375 0.25 0  1.46875 0.25 0  1.5 0.25 0  0 0.28125 0  0.03125 0.28125 0  0.0625 0.28125 0  0.09375 0.28125 0  0.125 0.28125 0  0.15625 0.28125 0  0.1875 0.28125 0  0.21875 0.28125 0  0.25 0.28125 0  0.28125 0.28125 0  0.3125 0.28125 0  0.34375 0.28125 0  0.375 0.28125 0  0.40625 0.28125 0  0.4375 0.28125 0  0.46875 0.28125 0  0.5 0.28125 0  0.53125 0.28125 0  0.5625 0.28125 0  0.59375 0.28125 0  0.625 0.28125 0  0.65625 0.28125 0  0.6875 0.28125 0  0.71875 0.28125 0  0.75 0.28125 0  0.78125 0.28125 0  0.8125 0.28125 0  0.84375 0.28125 0  0.875 0.28125 0  0.90625 0.28125 0  0.9375 0.28125 0  0.96875 0.28125 0  1 0.28125 0  1.03125 0.28125 0  1.0625 0.28125 0  1.09375 0.28125 0  1.125 0.28125 0  1.15625 0.28125 0  1.1875 0.28125 0  1.21875 0.28125 0  1.25 0.28125 0  1.28125 0.28125 0  1.3125 0.28125 0  1.34375 0.28125 0  1.375 0.28125 0  1.40625 0.28125 0  1.4375 0.28125 0  1.46875 0.28125 0  1.5 0.28125 0  0 0.3125 0  0.03125 0.3125 0  0.0625 0.3125 0  0.09375 0.3125 0  0.125 0.3125 0  0.15625 0.3125 0  0.1875 0.3125 0  0.21875 0.3125 0  0.25 0.3125 0  0.28125 0.3125 0  0.3125 0.3125 0  0.34375 0.3125 0  0.375 0.3125 0  0.40625 0.3125 0  0.4375 0.3125 0  0.46875 0.3125 0  0.5 0.3125 0  0.53125 0.3125 0  0.5625 0.3125 0  0.59375 0.3125 0  0.625 0.3125 0  0.65625 0.3125 0  0.6875 0.3125 0  0.71875 0.3125 0  0.75 0.3125 0  0.78125 0.3125 0  0.8125 0.3125 0  0.84375 0.3125 0  0.875 0.3125 0  0.90625 0.3125 0  0.9375 0.3125 0  0.96875 0.3125 0  1 0.3125 0  1.03125 0.3125 0  1.0625 0.3125 0  1.09375 0.3125 0  1.125 0.3125 0  1.15625 0.3125 0  1.1875 0.3125 0  1.21875 0.3125 0  1.25 0.3125 0  1.28125 0.3125 0  1.3125 0.3125 0  1.34375 0.3125 0  1.375 0.3125 0  1.40625 0.3125 0  1.4375 0.3125 0  1.46875 0.3125 0  1.5 0.3125 0  0 0.34375 0  0.03125 0.34375 0  0.0625 0.34375 0  0.09375 0.34375 0  0.125 0.34375 0  0.15625 0.34375 0  0.1875 0.34375 0  0.21875 0.34375 0  0.25 0.34375 0  0.28125 0.34375 0  0.3125 0.34375 0  0.34375 0.34375 0  0.375 0.34375 0  0.40625 0.34375 0  0.4375 0.34375 0  0.46875 0.34375 0  0.5 0.34375 0  0.53125 0.34375 0  0.5625 0.34375 0  0.59375 0.34375 0  0.625 0.34375 0  0.65625 0.34375 0  0.6875 0.34375 0  0.71875 0.34375 0  0.75 0.34375 0  0.78125 0.34375 0  0.8125 0.34375 0  0.84375 0.34375 0  0.875 0.34375 0  0.90625 0.34375 0  0.9375 0.34375 0  0.96875 0.34375 0  1 0.34375 0  1.03125 0.34375 0  1.0625 0.34375 0  1.09375 0.34375 0  1.125 0.34375 0  1.15625 0.34375 0  1.1875 0.34375 0  1.21875 0.34375 0  1.25 0.34375 0  1.28125 0.34375 0  1.3125 0.34375 0  1.34375 0.34375 0  1.375 0.34375 0  1
[...]
<PointData  Scalars="f_65"> 
<DataArray  type="Float64"  Name="f_65"  format="ascii">1.1840132002053052e+00  2.4677881160845286e-01  3.7618424241096948e-01  3.9709923282641829e-01  4.1038865985999501e-01  4.1666318319987067e-01  4.2079908696313528e-01  4.2438859751543923e-01  4.2792481150415462e-01  4.3156514231769894e-01  4.3534525342879044e-01  4.3926722651213967e-01  4.4332757039164700e-01  4.4752221074762549e-01  4.5184810911836126e-01  4.5630417207406876e-01  4.6089086341525581e-01  4.6561002147870834e-01  4.7046443485674461e-01  4.7545728444827035e-01  4.8059151146404361e-01  4.8586914499233280e-01  4.9129069275001597e-01  4.9685468877180716e-01  5.0255749107092040e-01  5.0839334808079417e-01  5.1435475287729693e-01  5.2043292618899029e-01  5.2661848342505335e-01  5.3290185527962541e-01  5.3927402700529037e-01  5.4572630217621454e-01  5.5225154709715962e-01  5.5884220560924736e-01  5.6549414683987154e-01  5.7219936326240717e-01  5.7895894529275593e-01  5.8575918382223802e-01  5.9261147020646276e-01  5.9947794433512114e-01  6.0639420912790265e-01  6.1315472359105683e-01  6.2004923448596394e-01  6.2517873217858821e-01  6.3179880509462505e-01  6.1770029942787086e-01  6.5864530609640848e-01  4.2995555143138031e-01  1.0642957517420557e-01  2.4503671926764685e+00  -1.8344461406557825e-02  5.5893629087056851e-01  5.0098467142669745e-01  5.1487251828191649e-01  5.1582869452190383e-01  5.1590308856439715e-01  5.1534778323877184e-01  5.1475323577306553e-01  5.1414269812353453e-01  5.1351824359606590e-01  5.1287708750944117e-01  5.1221970468991052e-01  5.1154578082005064e-01  5.1085618341310857e-01  5.1015171446707919e-01  5.0943315268202349e-01  5.0870121720136385e-01  5.0795635991071642e-01  5.0719862576338393e-01  5.0642748735006948e-01  5.0564173529688194e-01  5.0483947621264424e-01  5.0401827108429598e-01  5.0317542405218263e-01  5.0230838000817413e-01  5.0141515829725991e-01  5.0049471541114021e-01  4.9954717490880429e-01  4.9857384391686260e-01  4.9757710249082487e-01  4.9656008028256549e-01  4.9552644008554603e-01  4.9447989988056090e-01  4.9342424354956788e-01  4.9236271364694556e-01  4.9129839045863760e-01  4.9023291315737239e-01  4.8916834132218595e-01  4.8809504438479184e-01  4.8702509400718647e-01  4.8580730340014588e-01  4.8468446230750467e-01  4.8179154196139828e-01  4.8040323626610737e-01  4.6074022181797508e-01  4.7791819942127661e-01  2.9386177836609040e-01  8.8535431708078940e-03  2.4610337783980984e+00  -2.2007291529230880e-01  6.3042440597705018e-01  4.5990346330203680e-01  4.9322428183761552e-01  4.9262330476033489e-01  4.9358528165501159e-01  4.9399842333019900e-01  4.9448817614926532e-01  4.9494025675653913e-01  4.9537261264754445e-01  4.9578474728491456e-01  4.9617682460967544e-01  4.9654944164661857e-01  4.9690305849486438e-01  4.9723767222653215e-01  4.9755342381827983e-01  4.9785035579893411e-01  4.9812849261711389e-01  4.9838785586128048e-01  4.9862847151877138e-01  4.9885039271786247e-01  4.9905370229892360e-01  4.9923848978248869e-01  4.9940480539907450e-01  4.9955258687013632e-01  4.9968160999831740e-01  4.9979142989353276e-01  4.9988143415526110e-01  4.9995078618912575e-01  4.9999866753446154e-01  5.0002398207726850e-01  5.0002609526817843e-01  5.0000357782583205e-01  4.9995666791148718e-01  4.9988278965916699e-01  4.9978473004632362e-01  4.9965592327385022e-01  4.9950644582747328e-01  4.9931412321317986e-01  4.9911404821857575e-01  4.9877303534072465e-01  4.9848626530301565e-01  4.9690236469261795e-01  4.9590633150750957e-01  4.8157305888693686e-01  5.0004667468412634e-01  3.2915151343244398e-01  4.0598337251861606e-02  2.4725118378372066e+00  -2.1228315998504257e-01  6.7408551729625721e-01  4.5081981034732305e-01  5.0626129913977380e-01  5.0055092636029574e-01  5.0138226745190195e-01  5.0137520092111376e-01  5.0129287560467983e-01  5.0117565408026521e-01  5.0106371758354229e-01  5.0095455950479850e-01  5.0085002628411612e-01  5.0075077240926535e-01  5.0065628811605911e-01  5.0056672284364856e-01  5.0048227055901351e-01  5.0040318586280463e-01  5.0032984811598658e-01  5.0026266640652350e-01  5.0020205092530934e-01  5.0014834629377969e-01  5.0010175669231693e-01  5.0006227422104710e-01  5.0002962977715659e-01  5.0000328617703238e-01  4.9998251093103119e-01  4.9996648689461237e-01  4.9995448829492789e-01  4.9994593589779895e-01  4.9994055581164559e-01  4.9993814617465265e-01  4.9993892018706881e-01  4.9994268575108408e-01  4.9995015665267128e-01  4.9996046477976586e-01  4.9997542169826376e-01  4.9999216370032534e-01  5.0001539595986233e-01  5.0003416467026818e-01  5.0006456080974149e-01  5.0000583348512873e-01  5.0001819882432907e-01  4.9877186686501368e-01  4.9835988149424387e-01  4.8437036898077801e-01  5.0496677112859156e-01  3.4076571331251682e-01  4.3477449588344035e-02  2.4757562972517384e+00  -2.1365122022147318e-01  6.7519207604994724e-01  4.4380032383453211e-01  5.0823179192050882e-01  4.9795439071488473e-01  4.9990995032336677e-01  5.0005770188463039e-01  5.0000159316217130e-01  5.0001002798658112e-01  5.0000358705342729e-01  4.9999593050889507e-01  4.9998827002006740e-01  4.9997945077389333e-01  4.9996949756510539e-01  4.9995892442263901e-01  4.9994801469851124e-01  4.9993737663705839e-01  4.9992771053738799e-01  4.9991982260806361e-01  4.9991455293751219e-01  4.9991265286082243e-01  4.9991464836845556e-01  4.9992068423402997e-01  4.9993040535927225e-01  4.9994292801108881e-01  4.9995697777483089e-01  4.9997113052689363e-01  4.9998415295555282e-01  4.9999513300723580e-01  5.0000370169874842e-01  5.0000966637419508e-01  5.0001346794844170e-01  5.0001496496824083e-01  5.0001536934388313e-01  5.0001348659717904e-01  5.0001234990285437e-01  5.0000734833408278e-01  5.0000686311156872e-01  4.9999319696170813e-01  4.9999360030475132e-01  4.9988684526887533e-01  4.9985821213998149e-01  4.9854791081507321e-01  4.9806708671140199e-01  4.8400347782253705e-01  5.0480632898598887e-01  3.4051268201975338e-01  3.9844858403942141e-02  2.4778392806110712e+00  -2.1446346113035966e-01  6.7626349683723141e-01  4.4351061733081709e-01  5.0924461371131435e-01  4.9720218827309315e-01  5.0018864748772462e-01  5.0016902513812866e-01  5.0007289334905591e-01  5.0012237892562905e-01  5.0009672115224857e-01  5.0008270272305466e-01  5.0006577391638141e-01  5.0004696026885076e-01  5.0002721553718577e-01  5.0000653472223089e-01  4.9998538600494719e-01  4.9996456074453660e-01  4.9994502209469249e-01  4.9992803914172856e-01  4.9991495268075853e-01  4.9990703030003592e-01  4.9990518922813526e-01  4.9990969022613191e-01  4.9991989011739180e-01  4.9993418602008893e-01  4.9995030482602232e-01  4.9996584845235142e-01  4.9997891558189750e-01  4.9998835284285698e-01  4.9999389673331557e-01  4.9999568310937753e-01  4.9999449413113328e-01  4.9999057555236537e-01  4.9998529312414230e-01  4.9997785757042174e-01  4.9997100042744791e-01  4.9996104626633026e-01  4.9995464959610136e-01  4.9993738834560453e-01  4.9992979353942585e-01  4.9982177160449248e-01  4.9978106353880331e-01  4.9847882705008101e-01  4.9799886399283072e-01  4.8391921849928143e-01  5.0483743002183368e-01  3.4106355983717762e-01  4.0040669946506451e-02  2.4796578855461999e+00  -2.1553980741807999e-01  6.7674896431290033e-01  4.4328583528681220e-01  5.0929955197813215e-01  4.9698673651108510e-01  5.0036118584515576e-01  5.0013246765712294e-01  5.0008012805806101e-01  5.0015202931970382e-01  5.0010632740096683e-01  5.0009700692721948e-01  5.0007538069300184e-01  5.0005300553687548e-01  5.0002860096282575e-01  5.0000200027351449e-01  4.9997409774108487e-01  4.9994578663948802e-01  4.9991860555420575e-01  4.9989462630508114e-01  4.9987610989188347e-01  4.9986540071503227e-01  4.9986429439373342e-01  4.9987345066721883e-01  4.9989181933994170e-01  4.9991649544001338e-01  4.9994337531098254e-01  4.9996839786799596e-01  4.9998872668186251e-01  5.0000310500118283e-01  5.0001174015901029e-01  5.0001541834138497e-01  5.0001555196669556e-01  5.0001279559590861e-01  5.0000886100257502e-01  5.0000296575532133e-01  4.9999812804688148e-01  4.9999018332987499e-01  4.9998648699818188e-01  4.9997105352879667e-01  4.9996637905244368e-01  4.9985946843676698e-01  4.9982327123015474e-01  4.9853086769912330e-01  4.9807424781622156e-01  4.8396740090293650e-01  5.0494471048921830e-01  3.4126594714649211e-01  3.9917395714802358e-02  2.4813191919436148e+00  -2.1650215711452259e-01  6.7712364886285503e-01  4.4311340495445878e-01  5.0936836730390733e-01  4.9696265023417169e-01  5.0038102992884115e-01  5.0007530049732485e-01  5.0008073487113758e-01  5.0014719174694744e-01  5.0009653040642255e-01  5.0009593627088333e-01  5.0007127261905782e-01  5.0004877284161997e-01  5.0002126904948940e-01  4.9999000105910224e-01  4.9995568266854645e-01  4.9991920406228679e-01  4.9988295212738365e-01  4.9985005532064514e-01  4.9982426881278658e-01  4.9981001833545807e-01  4.9981079427253999e-01  4.9982814090015765e-01  4.9986021596439206e-01  4.9990141738247518e-01  4.9994397081607683e-01  4.9998089979961391e-01  5.0000829849260453e-01  5.0002547212737791e-01  5.0003393634483251e-01  5.0003580725865926e-01  5.0003346380999969e-01  5.0002812528580753e-01  5.0002176630352380e-01  5.0001369699708409e-01  5.0000686623302515e-01  4.9999714039799270e-01  4.9999149954754496e-01  4.9997440296460893e-01  4.9996704927712809e-01  4.9985924662741438e-01  4.9982098686426185e-01  4.9853886092905592e-01  4.9809459411272439e-01  4.8397085383385668e-01  5.0496795113895721e-01  3.4135250146813850e-01  3.9855296398824347e-02  2.4828150339436248e+00  -2.1736904859875536e-01  6.7742940689155773e-01  4.4299184262127356e-01  5.0946180743070391e-01  4.9695256953521111e-01  5.0038331006488102e-01  5.0007251919856877e-01  5.0009791212785970e-01  5.0015322128178052e-01  5.0010662747739409e-01  5.0010866813351684e-01  5.0008060338650340e-01  5.0005720356453687e-01  5.0002490647298403e-01  4.9998709063866792e-01  4.9994328984523784e-01  4.9989416956317689e-01  4.9984328021964408e-01  4.9979480335209103e-01  4.9975524483716044e-01  4.9973333570135170e-01  4.9973575584230900e-01  4.9976635996478530e-01  4.9982182344738468e-01  4.9989048160083044e-01  4.9995677256237314e-01  5.0000890452816660e-01  5.0004262240489372e-01  5.0005968907962250e-01  5.0006469923427943e-01  5.0006203654729864e-01  5.0005533730882079e-01  5.0004633712307567e-01  5.0003710638113696e-01  5.0002682779592433e-01  5.0001836765199670e-01  5.0000732031790085e-01  5.0000071043196193e-01  4.9998267397985152e-01  4.9997455843412902e-01  4.9986690839178982e-01  4.9982979130401939e-01  4.9855867951005101e-01  4.9812794497261076e-01  4.8399399313150154e-01  5.0499594363660605e-01  3.4143184560980960e-01  3.9841904756077628e-02  2.4841323009753125e+00  -2.1814515236883938e-01  6.7770926753707750e-01  4.4290595922170400e-01  5.0954214444328194e-01  4.9694183948697063e-01  5.0039619951925485e-01  5.0008038034307223e-01  5.0010779116138770e-01  5.0016193350685911e-01  5.0012091553107374e-01  5.0012372104572045e-01  5.0009572700069260e-01  5.0007233954609687e-01  5.0003614336682400e-01  4.9999171408520082e-01  4.9993656165247191e-01  4.9987005720078909e-01  4.9979749808680274e-01  4.9972262503944870e-01  4.9965842753759815e-01  4.9962165008737036e-01  4.9962472405886410e-01  4.9967926091061238e-01  4.9977850897708009e-01  4.9989536453437294e-01  4.9999728816218164e-01  5.0006588224025728e-01  5.0010042058435600e-01  5.0011008821529124e-01  5.0010534580874078e-01  5.0009371137579162e-01  5.0007995166372365e-01  5.0006572085800471e-01  5.0005276619041628e-01  5.0003981686169419e-01  5.0002942989150667e-01  5.0001692310188284e-01  5.0000915431968462e-01  4.9999023485231747e-01  4.9998119132133356e-01  4.9987401440564955e-01  4.9983752809602977e-01  4.9857715050811868e-01  4.9815624400266334e-01  4.8401743138043851e-01  5.0501518777375776e-01  3.4149636462599176e-01  3.9833197147051302e-02  2.4852696705591897e+00  -2.1882889230351898e-01  6.7796774220993172e-01  4.4283344207065212e-01  5.0960815990070296e-01  4.9693897467233478e-01  5.0041445417656050e-01  5.0008859055102683e-01  5.0012021265625473e-01  5.0017772702077701e-01  5.0014068951756907e-01  5.0014590359489919e-01  5.0012087804018190e-01  5.0009899269381863e-01  5.0006113369963534e-01  5.0001129377166864e-01  4.9994352186846253e-01  4.9985396694809930e-01  4.9974982841385907e-01  4.9962874633132820e-01  4.9952127000148072e-01  4.9945213182077902e-01  4.9944898736228327e-01  4.9955226739566894e-01  4.9974101480372762e-01  4.9994505767522823e-01  5.0009531467302604e-01  5.0017131328597619e-01  5.0019008444342195e-01  5.0017764290756983e-01  5.0015348618389743e-01  5.0012776811228177e-01  5.0010447991214746e-01  5.0008412039334615e-01  5.0006717210458540e-01  5.0005156066199685e-01  5.0003934953813978e-01  5.0002548875358699e-01  5.0001672555983956e-01  4.9999704105751069e-01  4.9998735404446215e-01  4.9988073173496056e-01  4.9984498281558648e-01  4.9859439609006123e-01  4.9818075669518785e-01  4.8404131140417628e-01  5.0503027810483347e-01  3.4155789366489542e-01  3.9830918153689526e-02  2.4862290971981862e+00  -2.1942024324818066e-01  6.7820030977835455e-01  4.4276790887480710e-01  5.0966567618332947e-01  4.9694150536665976e-01  5.0043228970308107e-01  5.0009858875822732e-01  5.0013704628935385e-01  5.0019779272178932e-01  5.0016553017276266e-01  5.0017611151385510e-01  5.0015703722108373e-01  5.0014034442835731e-01  5.0010579554075196e-01  5.0005521353422888e-01  4.9997685381288143e-01  4.9986206650366150e-01  4.9971468432092103e-01  4.9951462433514132e-01  4.9933184416289544e-01  4.9917446362360218e-01  4.9914493981648983e-01  4.9937081090547430e-01  4.9975716090708211e-01  5.0011434347454353e-01  5.0030504811762977e-01  5.0034761671919747e-01  5.0031234840157335e-01  5.0025457132938345e-01  5.0020077422691678e-01  5.0015746874797418e-01  5.0012458091307088e-01  5.0009879501262422e-01  5.0007873589630569e-01  5.0006116968792413e-01  5.0004764969857829e-01  5.0003281640592545e-01  5.0002333152337319e-01  5.0000311737684611e-01  4.9999297358276157e-01  4.9988698827107148e-01  4.9985181865074407e-01  4.9860988005986784e-01  4.9820125195958465e-01  4.8406397300216969e-01  5.0504268813507958e-01  3.4161623119387763e-01  3.9831162454220193e-02  2.4870125073657441e+00  -2.1991752756332728e-01  6.7840332169511797e-01  4.4270934802406858e-01  5.0971659961792815e-01  4.9694582488970335e-01  5.0044875238686648e-01  5.0011055631320256e-01  5.0015572716246526e-01  5.0022004323353220e-01  5.0019463333013814e-01  5.0021323164361564e-01  5.0020389810379218e-01  5.0019839726006043e-01  5.0017578457899492e-01  5.0013503870996345e-01  5.0005734051128337e-01  4.9992663762345763e-01  4.9972424278703004e-01  4.9939857824024941e-01  4.9906863228206633e-01  4.9865370308586265e-01  4.9859652675198446e-01  4.9917375436092554e-01  4.9999393061942493e-01  5.0057439486068911e-01  5.0070019851183212e-01  5.0059256761774640e-01  5.0043708217549354e-01  5.0031315594331616e-01  5.0022794034775298e-01  5.0017211131967565e-01  5.0013425857859084e-01  5.0010670058211604e-01  5.0008584866864081e-01  5.0006775999348818e-01  5.0005381270050653e-01  5.0003854558751426e-01  5.0002869667766559e-01  5.0000817283529164e-01  4.9999776668356399e-01  4.9989235857755060e-01  4.9985763865687211e-01  4.9862287853316378e-01  4.9821747627141361e-01  4.8408404609489974e-01  5.0505305241220699e-01  3.4166949973189520e-01  3.9832231604721921e-02  2.4876217147773358e+00  -2.2031838352628988e-01  6.7857304062052315e-01  4.4265868759478427e-01  5.0976040948584678e-01  4.9694997320615059e-01  5.0046358139713953e-01  5.0012291866171621e-01  5.0017396789833157e-01  5.0024273606294667e-01  5.0022545892111536e-01  5.0025404730064160e-01  5.0025841586798081e-01  5.0027110715538836e-01  5.0027194344171277e-01  5.0025873423416867e-01  5.0020783908049937e-01  5.0009038386840887e-01  4.9983908827587481e-01  4.9935605327496396e-01  4.9871584011548975e-01  4.9766915319184063e-01  4.9772438593679796e-01  4.9918299143924044e-01  5.0089575886494375e-01  5.0164806071436308e-01  5.0125262630028022e-01  5.0075222812983122e-01  5.0045650669350183e-01  5.0029066012521106e-01  5.0020623958254895e-01  5.0015868115363604e-01  5.0012855155193547e-01  5.0010591400304061e-01  5.0008778706273294e-01  5.0007106868501616e-01  5.0005770662810989e-01  5.0004258720800987e-01  5.0003272827571743e-01  5.0001209895346610e-01  5.0000159584497683e-01  4.9989664518843352e-01  4.9986225962549591e-01  4.9863299129437416e-01  4.9822949932677973e-01  4.8410056598533158e-01  5.0506204015548650e-01  3.4171509249268117e-01  3.9833465382195669e-02  2.4880580951989595e+00  -2.2062019509372635e-01  6.7870606222660013e-01  4.4261710635357393e-01  5.0979605651536031e-01  4.9695305878504309e-01  5.0047595281833912e-01  5.0013362877086298e-01  5.0018953963289425e-01  5.0026290127486117e-01  5.0025353110248050e-01  5.0029265184938587e-01  5.0031278586703343e-01  5.0034858011515071e-01  5.0038367147997531e-01  5.0042071434659352e-01  5.0044176086854142e-01  5.0041401571999167e-01  5.0022998216478665e-01  4.9970282907322483e-01  4.9852645331306678e-01  4.9617720181650404e-01  4.9636796649482412e-01  5.0000761374758929e-01  5.0371273803363348e-01  5.0379323044005875e-01  5.0131826006670854e-01  5.0027952798608832e-01  5.0005116521817783e-01  5.0008422349057013e-01  5.0010347220198192e-01  5.0011085450038706e-01  5.0010741295207517e-01  5.0009752128886664e-01  5.0008555650528685e-01  5.0007169952854402e-01  5.0005966523197742e-01  5.0004508896366417e-01  5.0003545920880987e-01  5.0001484564248111e-01  5.0000436864110731e-01  4.9989967395450341e-01  4.9986553415470292e-01  4.9863986207327748e-01  4.9823733320880781e-01  4.8411271705806830e-01  5.0507004802540389e-01  3.4175021331739575e-01  3.9834431226863851e-02  2.4883226355455843e+00  -2.2082059837777165e-01  6.7879948126032497e-01  4.4258568534962978e-01  5.0982250217833913e-01  4.9695454138751116e-01  5.0048474051923009e-01  5.0014087536626251e-01  5.0020023023552418e-01  5.0027704706718967e-01  5.0027361136554460e-01  5.0032120407854086e-01  5.0035486462197964e-01  5.0041232761724086e-01  5.0048413582512252e-01  5.0058592005139746e-01  5.0072529042070502e-01  5.0091061054896280e-01  5.0109619121619897e-01  5.0109881024325154e-01  5.0024505291646226e-01  4.9760428501523124e-01  4.9717366513010319e-01  5.0315733998705103e-01  5.1077658547258786e-01  5.0993517817889156e-01  4.9922310039239015e-01  4.9782970592900372e-01  4.9889265778256930e-01  4.9957477185208538e-01  4.9991536747550841e-01  5.0004015484322650e-01  5.0007994724102323e-01  5.0008701024670554e-01  5.0008195221534968e-01  5.0007108597384153e-01  5.0006039751709641e-01  5.0004637516780592e-01  5.0003701857935434e-01  5.0001642928229473e-01  5.0000604296969975e-01  4.9990133717208673e-01  4.9986736808796817e-01  4.9864323773904806e-01  4.9824098970952829e-01  4.8411990575538638e-01  5.0507735473400694e-01  3.4177255744691937e-01  3.9835045737517380e-02  2.4884159364687006e+00  -2.2091799265872844e-01  6.7885122106901252e-01  4.4256527621613773e-01  5.0983896295645725e-01  4.9695410188170819e-01  5.0048904696932550e-01  5.0014341566675136e-01  5.0020427644835430e-01  5.0028227963120830e-01  5.0028118277992384e-01  5.0033218908362964e-01  5.0037160594812868e-01  5.0043885385506059e-01  5.0052865841661676e-01  5.0066498846682594e-01  5.0087345303770892e-01  5.0119721238078352e-01  5.0166387756090891e-01  5.0217844802530887e-01  5.0226471529910754e-01  5.0114221009222426e-01  4.9945121694882255e-01  5.1676137874209094e-01  5.1531754775769256e-01  5.1685284051327207e-01  5.1149508021532153e-01  4.9343004110459099e-01  4.9734322293800209e-01  4.9908339892771875e-01  4.9977924114299965e-01  4.9999970147616518e-01  5.0006775716871055e-01  5.0008289736944977e-01  5.0008060177270186e-01  5.0007085410421237e-01  5.0006061692403780e-01  5.0004677711119228e-01  5.0003754176570914e-01  5.0001688661194421e-01  5.0000660617574433e-01  4.9990157505751087e-01  4.9986770064618169e-01  4.9864295609588971e-01  4.9824043459396372e-01  4.8