<?xml version="1.0"?>
<VTKFile type="UnstructuredGrid"  version="0.1"  >
<UnstructuredGrid>
<Piece  NumberOfPoints="1617" NumberOfCells="3072">
<Points>
<DataArray  type="Float64"  NumberOfComponents="3"  format="ascii">0 0 0  0.03125 0 0  0.0625 0 0  0.09375 0 0  0.125 0 0  0.15625 0 0  0.1875 0 0  0.21875 0 0  0.25 0 0  0.28125 0 0  0.3125 0 0  0.34375 0 0  0.375 0 0  0.40625 0 0  0.4375 0 0  0.46875 0 0  0.5 0 0  0.53125 0 0  0.5625 0 0  0.59375 0 0  0.625 0 0  0.65625 0 0  0.6875 0 0  0.71875 0 0  0.75 0 0  0.78125 0 0  0.8125 0 0  0.84375 0 0  0.875 0 0  0.90625 0 0  0.9375 0 0  0.96875 0 0  1 0 0  1.03125 0 0  1.0625 0 0  1.09375 0 0  1.125 0 0  1.15625 0 0  1.1875 0 0  1.21875 0 0  1.25 0 0  1.28125 0 0  1.3125 0 0  1.34375 0 0  1.375 0 0  1.40625 0 0  1.4375 0 0  1.46875 0 0  1.5 0 0  0 0.03125 0  0.03125 0.03125 0  0.0625 0.03125 0  0.09375 0.03125 0  0.125 0.03125 0  0.15625 0.03125 0  0.1875 0.03125 0  0.21875 0.03125 0  0.25 0.03125 0  0.28125 0.03125 0  0.3125 0.03125 0  0.34375 0.03125 0  0.375 0.03125 0  0.40625 0.03125 0  0.4375 0.03125 0  0.46875 0.03125 0  0.5 0.03125 0  0.53125 0.03125 0  0.5625 0.03125 0  0.59375 0.03125 0  0.625 0.03125 0  0.65625 0.03125 0  0.6875 0.03125 0  0.71875 0.03125 0  0.75 0.03125 0  0.78125 0.03125 0  0.8125 0.03125 0  0.84375 0.03125 0  0.875 0.03125 0  0.90625 0.03125 0  0.9375 0.03125 0  0.96875 0.03125 0  1 0.03125 0  1.03125 0.03125 0  1.0625 0.03125 0  1.09375 0.03125 0  1.125 0.03125 0  1.15625 0.03125 0  1.1875 0.03125 0  1.21875 0.03125 0  1.25 0.03125 0  1.28125 0.03125 0  1.3125 0.03125 0  1.34375 0.03125 0  1.375 0.03125 0  1.40625 0.03125 0  1.4375 0.03125 0  1.46875 0.03125 0  1.5 0.03125 0  0 0.0625 0  0.03125 0.0625 0  0.0625 0.0625 0  0.09375 0.0625 0  0.125 0.0625 0  0.15625 0.0625 0  0.1875 0.0625 0  0.21875 0.0625 0  0.25 0.0625 0  0.28125 0.0625 0  0.3125 0.0625 0  0.34375 0.0625 0  0.375 0.0625 0  0.40625 0.0625 0  0.4375 0.0625 0  0.46875 0.0625 0  0.5 0.0625 0  0.53125 0.0625 0  0.5625 0.0625 0  0.59375 0.0625 0  0.625 0.0625 0  0.65625 0.0625 0  0.6875 0.0625 0  0.71875 0.0625 0  0.75 0.0625 0  0.78125 0.0625 0  0.8125 0.0625 0  0.84375 0.0625 0  0.875 0.0625 0  0.90625 0.0625 0  0.9375 0.0625 0  0.96875 0.0625 0  1 0.0625 0  1.03125 0.0625 0  1.0625 0.0625 0  1.09375 0.0625 0  1.125 0.0625 0  1.15625 0.0625 0  1.1875 0.0625 0  1.21875 0.0625 0  1.25 0.0625 0  1.28125 0.0625 0  1.3125 0.0625 0  1.34375 0.0625 0  1.375 0.0625 0  1.40625 0.0625 0  1.4375 0.0625 0  1.46875 0.0625 0  1.5 0.0625 0  0 0.09375 0  0.03125 0.09375 0  0.0625 0.09375 0  0.09375 0.09375 0  0.125 0.09375 0  0.15625 0.09375 0  0.1875 0.09375 0  0.21875 0.09375 0  0.25 0.09375 0  0.28125 0.09375 0  0.3125 0.09375 0  0.34375 0.09375 0  0.375 0.09375 0  0.40625 0.09375 0  0.4375 0.09375 0  0.46875 0.09375 0  0.5 0.09375 0  0.53125 0.09375 0  0.5625 0.09375 0  0.59375 0.09375 0  0.625 0.09375 0  0.65625 0.09375 0  0.6875 0.09375 0  0.71875 0.09375 0  0.75 0.09375 0  0.78125 0.09375 0  0.8125 0.09375 0  0.84375 0.09375 0  0.875 0.09375 0  0.90625 0.09375 0  0.9375 0.09375 0  0.96875 0.09375 0  1 0.09375 0  1.03125 0.09375 0  1.0625 0.09375 0  1.09375 0.09375 0  1.125 0.09375 0  1.15625 0.09375 0  1.1875 0.09375 0  1.21875 0.09375 0  1.25 0.09375 0  1.28125 0.09375 0  1.3125 0.09375 0  1.34375 0.09375 0  1.375 0.09375 0  1.40625 0.09375 0  1.4375 0.09375 0  1.46875 0.09375 0  1.5 0.09375 0  0 0.125 0  0.03125 0.125 0  0.0625 0.125 0  0.09375 0.125 0  0.125 0.125 0  0.15625 0.125 0  0.1875 0.125 0  0.21875 0.125 0  0.25 0.125 0  0.28125 0.125 0  0.3125 0.125 0  0.34375 0.125 0  0.375 0.125 0  0.40625 0.125 0  0.4375 0.125 0  0.46875 0.125 0  0.5 0.125 0  0.53125 0.125 0  0.5625 0.125 0  0.59375 0.125 0  0.625 0.125 0  0.65625 0.125 0  0.6875 0.125 0  0.71875 0.125 0  0.75 0.125 0  0.78125 0.125 0  0.8125 0.125 0  0.84375 0.125 0  0.875 0.125 0  0.90625 0.125 0  0.9375 0.125 0  0.96875 0.125 0  1 0.125 0  1.03125 0.125 0  1.0625 0.125 0  1.09375 0.125 0  1.125 0.125 0  1.15625 0.125 0  1.1875 0.125 0  1.21875 0.125 0  1.25 0.125 0  1.28125 0.125 0  1.3125 0.125 0  1.34375 0.125 0  1.375 0.125 0  1.40625 0.125 0  1.4375 0.125 0  1.46875 0.125 0  1.5 0.125 0  0 0.15625 0  0.03125 0.15625 0  0.0625 0.15625 0  0.09375 0.15625 0  0.125 0.15625 0  0.15625 0.15625 0  0.1875 0.15625 0  0.21875 0.15625 0  0.25 0.15625 0  0.28125 0.15625 0  0.3125 0.15625 0  0.34375 0.15625 0  0.375 0.15625 0  0.40625 0.15625 0  0.4375 0.15625 0  0.46875 0.15625 0  0.5 0.15625 0  0.53125 0.15625 0  0.5625 0.15625 0  0.59375 0.15625 0  0.625 0.15625 0  0.65625 0.15625 0  0.6875 0.15625 0  0.71875 0.15625 0  0.75 0.15625 0  0.78125 0.15625 0  0.8125 0.15625 0  0.84375 0.15625 0  0.875 0.15625 0  0.90625 0.15625 0  0.9375 0.15625 0  0.96875 0.15625 0  1 0.15625 0  1.03125 0.15625 0  1.0625 0.15625 0  1.09375 0.15625 0  1.125 0.15625 0  1.15625 0.15625 0  1.1875 0.15625 0  1.21875 0.15625 0  1.25 0.15625 0  1.28125 0.15625 0  1.3125 0.15625 0  1.34375 0.15625 0  1.375 0.15625 0  1.40625 0.15625 0  1.4375 0.15625 0  1.46875 0.15625 0  1.5 0.15625 0  0 0.1875 0  0.03125 0.1875 0  0.0625 0.1875 0  0.09375 0.1875 0  0.125 0.1875 0  0.15625 0.1875 0  0.1875 0.1875 0  0.21875 0.1875 0  0.25 0.1875 0  0.28125 0.1875 0  0.3125 0.1875 0  0.34375 0.1875 0  0.375 0.1875 0  0.40625 0.1875 0  0.4375 0.1875 0  0.46875 0.1875 0  0.5 0.1875 0  0.53125 0.1875 0  0.5625 0.1875 0  0.59375 0.1875 0  0.625 0.1875 0  0.65625 0.1875 0  0.6875 0.1875 0  0.71875 0.1875 0  0.75 0.1875 0  0.78125 0.1875 0  0.8125 0.1875 0  0.84375 0.1875 0  0.875 0.1875 0  0.90625 0.1875 0  0.9375 0.1875 0  0.96875 0.1875 0  1 0.1875 0  1.03125 0.1875 0  1.0625 0.1875 0  1.09375 0.1875 0  1.125 0.1875 0  1.15625 0.1875 0  1.1875 0.1875 0  1.21875 0.1875 0  1.25 0.1875 0  1.28125 0.1875 0  1.3125 0.1875 0  1.34375 0.1875 0  1.375 0.1875 0  1.40625 0.1875 0  1.4375 0.1875 0  1.46875 0.1875 0  1.5 0.1875 0  0 0.21875 0  0.03125 0.21875 0  0.0625 0.21875 0  0.09375 0.21875 0  0.125 0.21875 0  0.15625 0.21875 0  0.1875 0.21875 0  0.21875 0.21875 0  0.25 0.21875 0  0.28125 0.21875 0  0.3125 0.21875 0  0.34375 0.21875 0  0.375 0.21875 0  0.40625 0.21875 0  0.4375 0.21875 0  0.46875 0.21875 0  0.5 0.21875 0  0.53125 0.21875 0  0.5625 0.21875 0  0.59375 0.21875 0  0.625 0.21875 0  0.65625 0.21875 0  0.6875 0.21875 0  0.71875 0.21875 0  0.75 0.21875 0  0.78125 0.21875 0  0.8125 0.21875 0  0.84375 0.21875 0  0.875 0.21875 0  0.90625 0.21875 0  0.9375 0.21875 0  0.96875 0.21875 0  1 0.21875 0  1.03125 0.21875 0  1.0625 0.21875 0  1.09375 0.21875 0  1.125 0.21875 0  1.15625 0.21875 0  1.1875 0.21875 0  1.21875 0.21875 0  1.25 0.21875 0  1.28125 0.21875 0  1.3125 0.21875 0  1.34375 0.21875 0  1.375 0.21875 0  1.40625 0.21875 0  1.4375 0.21875 0  1.46875 0.21875 0  1.5 0.21875 0  0 0.25 0  0.03125 0.25 0  0.0625 0.25 0  0.09375 0.25 0  0.125 0.25 0  0.15625 0.25 0  0.1875 0.25 0  0.21875 0.25 0  0.25 0.25 0  0.28125 0.25 0  0.3125 0.25 0  0.34375 0.25 0  0.375 0.25 0  0.40625 0.25 0  0.4375 0.25 0  0.46875 0.25 0  0.5 0.25 0  0.53125 0.25 0  0.5625 0.25 0  0.59375 0.25 0  0.625 0.25 0  0.65625 0.25 0  0.6875 0.25 0  0.71875 0.25 0  0.75 0.25 0  0.78125 0.25 0  0.8125 0.25 0  0.84375 0.25 0  0.875 0.25 0  0.90625 0.25 0  0.9375 0.25 0  0.96875 0.25 0  1 0.25 0  1.03125 0.25 0  1.0625 0.25 0  1.09375 0.25 0  1.125 0.25 0  1.15625 0.25 0  1.1875 0.25 0  1.21875 0.25 0  1.25 0.25 0  1.28125 0.25 0  1.3125 0.25 0  1.34375 0.25 0  1.375 0.25 0  1.40625 0.25 0  1.4375 0.25 0  1.46875 0.25 0  1.5 0.25 0  0 0.28125 0  0.03125 0.28125 0  0.0625 0.28125 0  0.09375 0.28125 0  0.125 0.28125 0  0.15625 0.28125 0  0.1875 0.28125 0  0.21875 0.28125 0  0.25 0.28125 0  0.28125 0.28125 0  0.3125 0.28125 0  0.34375 0.28125 0  0.375 0.28125 0  0.40625 0.28125 0  0.4375 0.28125 0  0.46875 0.28125 0  0.5 0.28125 0  0.53125 0.28125 0  0.5625 0.28125 0  0.59375 0.28125 0  0.625 0.28125 0  0.65625 0.28125 0  0.6875 0.28125 0  0.71875 0.28125 0  0.75 0.28125 0  0.78125 0.28125 0  0.8125 0.28125 0  0.84375 0.28125 0  0.875 0.28125 0  0.90625 0.28125 0  0.9375 0.28125 0  0.96875 0.28125 0  1 0.28125 0  1.03125 0.28125 0  1.0625 0.28125 0  1.09375 0.28125 0  1.125 0.28125 0  1.15625 0.28125 0  1.1875 0.28125 0  1.21875 0.28125 0  1.25 0.28125 0  1.28125 0.28125 0  1.3125 0.28125 0  1.34375 0.28125 0  1.375 0.28125 0  1.40625 0.28125 0  1.4375 0.28125 0  1.46875 0.28125 0  1.5 0.28125 0  0 0.3125 0  0.03125 0.3125 0  0.0625 0.3125 0  0.09375 0.3125 0  0.125 0.3125 0  0.15625 0.3125 0  0.1875 0.3125 0  0.21875 0.3125 0  0.25 0.3125 0  0.28125 0.3125 0  0.3125 0.3125 0  0.34375 0.3125 0  0.375 0.3125 0  0.40625 0.3125 0  0.4375 0.3125 0  0.46875 0.3125 0  0.5 0.3125 0  0.53125 0.3125 0  0.5625 0.3125 0  0.59375 0.3125 0  0.625 0.3125 0  0.65625 0.3125 0  0.6875 0.3125 0  0.71875 0.3125 0  0.75 0.3125 0  0.78125 0.3125 0  0.8125 0.3125 0  0.84375 0.3125 0  0.875 0.3125 0  0.90625 0.3125 0  0.9375 0.3125 0  0.96875 0.3125 0  1 0.3125 0  1.03125 0.3125 0  1.0625 0.3125 0  1.09375 0.3125 0  1.125 0.3125 0  1.15625 0.3125 0  1.1875 0.3125 0  1.21875 0.3125 0  1.25 0.3125 0  1.28125 0.3125 0  1.3125 0.3125 0  1.34375 0.3125 0  1.375 0.3125 0  1.40625 0.3125 0  1.4375 0.3125 0  1.46875 0.3125 0  1.5 0.3125 0  0 0.34375 0  0.03125 0.34375 0  0.0625 0.34375 0  0.09375 0.34375 0  0.125 0.34375 0  0.15625 0.34375 0  0.1875 0.34375 0  0.21875 0.34375 0  0.25 0.34375 0  0.28125 0.34375 0  0.3125 0.34375 0  0.34375 0.34375 0  0.375 0.34375 0  0.40625 0.34375 0  0.4375 0.34375 0  0.46875 0.34375 0  0.5 0.34375 0  0.53125 0.34375 0  0.5625 0.34375 0  0.59375 0.34375 0  0.625 0.34375 0  0.65625 0.34375 0  0.6875 0.34375 0  0.71875 0.34375 0  0.75 0.34375 0  0.78125 0.34375 0  0.8125 0.34375 0  0.84375 0.34375 0  0.875 0.34375 0  0.90625 0.34375 0  0.9375 0.34375 0  0.96875 0.34375 0  1 0.34375 0  1.03125 0.34375 0  1.0625 0.34375 0  1.09375 0.34375 0  1.125 0.34375 0  1.15625 0.34375 0  1.1875 0.34375 0  1.21875 0.34375 0  1.25 0.34375 0  1.28125 0.34375 0  1.3125 0.34375 0  1.34375 0.34375 0  1.375 0.34375 0  1
[...]
<PointData  Scalars="f_65"> 
<DataArray  type="Float64"  Name="f_65"  format="ascii">2.8661261198719767e-02  4.0994665156257842e-01  4.9581584404078255e-01  5.0012537340858099e-01  5.1053229634243158e-01  5.1843917359193226e-01  5.2417463740957526e-01  5.2798434075247380e-01  5.3022736314646712e-01  5.3126227210231436e-01  5.3145076424662996e-01  5.3109220828848369e-01  5.3040752850856276e-01  5.2954430511684558e-01  5.2859410816037045e-01  5.2761116604772673e-01  5.2662727927834785e-01  5.2566162755066115e-01  5.2472626684716339e-01  5.2382873385547291e-01  5.2297304191022975e-01  5.2215999077617681e-01  5.2138737206159480e-01  5.2065039366183719e-01  5.1994245137770734e-01  5.1925621916834230e-01  5.1858490853669814e-01  5.1792347663693439e-01  5.1726955649616668e-01  5.1662393438050658e-01  5.1599048038315465e-01  5.1537547713059140e-01  5.1478625074987483e-01  5.1422864726160988e-01  5.1370268856029333e-01  5.1319375458206873e-01  5.1265993677531774e-01  5.1200387734193664e-01  5.1105551483557010e-01  5.0951247513490106e-01  5.0692758293686224e-01  5.0297468646760046e-01  4.9570856335796143e-01  4.9041615838733615e-01  4.6307900376613031e-01  4.7875523054615610e-01  4.7784810254254872e-01  -3.4269425370063145e-01  2.8746027739031379e+00  -2.0833646791689062e-02  4.2012189835347125e-01  4.5764244437930890e-01  4.7922290526945077e-01  4.8419655056159816e-01  4.9381386693201856e-01  5.0088830497303516e-01  5.0593092786255134e-01  5.0921933381358830e-01  5.1116646140219757e-01  5.1217750313116073e-01  5.1259683455454064e-01  5.1267902883062766e-01  5.1259265683907362e-01  5.1243964789508589e-01  5.1227728739276279e-01  5.1213617719926552e-01  5.1203222103603030e-01  5.1197346251043274e-01  5.1196342313972121e-01  5.1200245795898591e-01  5.1208820298717750e-01  5.1221577300851118e-01  5.1237806651963480e-01  5.1256632728252183e-01  5.1277096213401241e-01  5.1298250578650817e-01  5.1319255913302564e-01  5.1339451677264036e-01  5.1358393638341659e-01  5.1375845736353654e-01  5.1391718945586162e-01  5.1405939846355275e-01  5.1418199948034293e-01  5.1427491679512716e-01  5.1431239557998187e-01  5.1423879966346453e-01  5.1394566826434063e-01  5.1324506040700835e-01  5.1184689341180789e-01  5.0931007295096264e-01  5.0530432822893667e-01  4.9863032961413339e-01  4.9150316625746637e-01  4.7474584430203642e-01  4.6932522704632812e-01  5.0738180165163083e-01  2.5199780033486895e-02  2.5218079465824825e+00  1.2553056893834865e-02  4.1734314398302508e-01  4.4099185407674824e-01  4.7409014976663311e-01  4.6869121163936150e-01  4.8096972480772637e-01  4.8871381873476794e-01  4.9457028095546940e-01  4.9862473371106292e-01  5.0127870867341151e-01  5.0291186294982382e-01  5.0387625129383617e-01  5.0443775169122773e-01  5.0477548184224053e-01  5.0499819346117825e-01  5.0516649888457588e-01  5.0531190450868813e-01  5.0544997291149751e-01  5.0558807497861702e-01  5.0572935825599563e-01  5.0587451004812123e-01  5.0602243628141585e-01  5.0617052845133026e-01  5.0631487704457423e-01  5.0645059629295597e-01  5.0657230342720938e-01  5.0667470907913525e-01  5.0675321432796083e-01  5.0680438298529595e-01  5.0682616961794047e-01  5.0681781245817870e-01  5.0677928681991269e-01  5.0671008907797066e-01  5.0660677323546710e-01  5.0645824006123241e-01  5.0623668413513556e-01  5.0588363252888591e-01  5.0528562510777786e-01  5.0425625726178147e-01  5.0249858903190847e-01  4.9963283984735285e-01  4.9530139956636060e-01  4.8864958199472097e-01  4.8190166196055556e-01  4.6538174156715850e-01  4.6937239035617162e-01  4.9159463116129515e-01  2.9095058651439211e-03  2.4441161767819031e+00  1.6227744188936601e-02  4.1285338920385117e-01  4.4836434808002484e-01  4.7697128464660699e-01  4.6633457976281856e-01  4.8093343127195259e-01  4.8756992849222741e-01  4.9313557122729262e-01  4.9699698767729988e-01  4.9951006230038936e-01  5.0101744932960846e-01  5.0186085072460151e-01  5.0230290134763300e-01  5.0252334878153804e-01  5.0263192465178042e-01  5.0268982443290811e-01  5.0272871530657581e-01  5.0276419639275771e-01  5.0280380314728168e-01  5.0285111910228841e-01  5.0290756486637866e-01  5.0297300806135292e-01  5.0304589931268484e-01  5.0312333895834149e-01  5.0320129344102849e-01  5.0327504979328463e-01  5.0333987258050961e-01  5.0339171472406918e-01  5.0342777477228406e-01  5.0344672229668286e-01  5.0344849644590561e-01  5.0343361512713170e-01  5.0340182039847559e-01  5.0334950532727007e-01  5.0326496299709667e-01  5.0311937417715069e-01  5.0285322757214346e-01  5.0235324213342403e-01  5.0143619720939003e-01  4.9982012540231646e-01  4.9714489586324839e-01  4.9313745900433092e-01  4.8693348938973158e-01  4.8110589208812393e-01  4.6550682996133730e-01  4.7105764466009942e-01  4.9574475305046056e-01  1.1056750277744972e-02  2.4678038706972636e+00  1.6671524864990378e-02  4.1567704622233609e-01  4.5247434651922308e-01  4.7546811940632755e-01  4.6518705196172294e-01  4.8034757487738244e-01  4.8583679865499801e-01  4.9140386223483751e-01  4.9519761108060445e-01  4.9768283946333747e-01  4.9918372846451564e-01  5.0002648230697022e-01  5.0046956897735440e-01  5.0069070871196275e-01  5.0079895899639348e-01  5.0085526916251433e-01  5.0089131173972523e-01  5.0092297163603206e-01  5.0095837345050231e-01  5.0100195516191115e-01  5.0105611080660128e-01  5.0112156644725436e-01  5.0119724406393629e-01  5.0128010709654147e-01  5.0136531602670875e-01  5.0144686439043962e-01  5.0151863975470601e-01  5.0157560989982786e-01  5.0161470868872793e-01  5.0163510356266294e-01  5.0163777485311389e-01  5.0162448753596334e-01  5.0159613137927528e-01  5.0154997106900001e-01  5.0147486583829826e-01  5.0134245795610510e-01  5.0109400328579512e-01  5.0061847202225707e-01  4.9973796596689030e-01  4.9818208792808932e-01  4.9561307404745825e-01  4.9178366563589304e-01  4.8589810867028771e-01  4.8047952110495062e-01  4.6556566891203854e-01  4.7182422811209312e-01  4.9657851244384599e-01  1.2583449664591193e-02  2.4685128449608933e+00  1.7110585837081218e-02  4.1847344621720323e-01  4.5363461690482809e-01  4.7553477973072517e-01  4.6586488389523023e-01  4.8032837745326679e-01  4.8529808644020456e-01  4.9093555566044267e-01  4.9460222951388827e-01  4.9703400614777887e-01  4.9850408556794357e-01  4.9932283685120848e-01  4.9974652913758805e-01  4.9994926202833134e-01  5.0003903973188979e-01  5.0007641192926533e-01  5.0009331564005088e-01  5.0010642863100008e-01  5.0012514186587831e-01  5.0015551612969456e-01  5.0020160648517953e-01  5.0026540289170696e-01  5.0034617885906152e-01  5.0043992448330166e-01  5.0053943549342728e-01  5.0063541437474079e-01  5.0071847496219934e-01  5.0078136864840439e-01  5.0082047667776430e-01  5.0083599357583453e-01  5.0083090778974648e-01  5.0080924554234130e-01  5.0077386083989206e-01  5.0072343004114872e-01  5.0064769027150646e-01  5.0051886503109089e-01  5.0027897403298116e-01  4.9981867874080199e-01  4.9896408744515902e-01  4.9745224784595260e-01  4.9495959501448439e-01  4.9125428402390242e-01  4.8556997298218157e-01  4.8042380413645069e-01  4.6587333000114295e-01  4.7263524188282463e-01  4.9745071115091760e-01  1.5142257215856020e-02  2.4717606157594103e+00  1.7362000318243781e-02  4.2074589325333955e-01  4.5454558248271637e-01  4.7632458616501039e-01  4.6645344085843887e-01  4.8043039508988117e-01  4.8532876358879568e-01  4.9092903493091988e-01  4.9446983505692410e-01  4.9686689756226876e-01  4.9830692479416128e-01  4.9910084552664169e-01  4.9950345337525059e-01  4.9968494245204087e-01  4.9975277288418440e-01  4.9976722812915941e-01  4.9976091995499206e-01  4.9975186477517375e-01  4.9975161896774917e-01  4.9976906254750153e-01  4.9981115028311607e-01  4.9988215563506772e-01  4.9998194673669005e-01  5.0010453623505724e-01  5.0023798931516206e-01  5.0036650855871379e-01  5.0047452082987465e-01  5.0055109066631176e-01  5.0059237472800400e-01  5.0060117581480335e-01  5.0058442587753305e-01  5.0055000841515795e-01  5.0050371304396557e-01  5.0044600745064305e-01  5.0036746012053457e-01  5.0024056040120557e-01  5.0000752072783283e-01  4.9955978909020232e-01  4.9872565872112906e-01  4.9724680478290950e-01  4.9480811620841952e-01  4.9118704690899556e-01  4.8563813393536387e-01  4.8066574586956523e-01  4.6636424607462923e-01  4.7348171919395121e-01  4.9827344672117113e-01  1.7310716840165441e-02  2.4746520560013612e+00  1.7550095414814920e-02  4.2244160052591984e-01  4.5514620031047881e-01  4.7690034822743022e-01  4.6676966648234786e-01  4.8058754450846392e-01  4.8545053406415006e-01  4.9096126917256350e-01  4.9444438299555526e-01  4.9683221710525982e-01  4.9825414794840017e-01  4.9903544461792548e-01  4.9942563603629231e-01  4.9959203764016813e-01  4.9964183727919015e-01  4.9963506754285641e-01  4.9960527626961293e-01  4.9957225049262821e-01  4.9955108051635988e-01  4.9955527998349547e-01  4.9959691135732737e-01  4.9968479428154244e-01  4.9982024506909023e-01  4.9999385622692305e-01  5.0018478253134468e-01  5.0036485700843680e-01  5.0050747500776804e-01  5.0059664814403526e-01  5.0063050347784632e-01  5.0061835202646288e-01  5.0057467359473740e-01  5.0051347832777904e-01  5.0044435480840832e-01  5.0036943796903355e-01  5.0027949617463630e-01  5.0014647079333285e-01  4.9991189249440882e-01  4.9946696484305142e-01  4.9864078933853312e-01  4.9717748555988811e-01  4.9476749698909350e-01  4.9119372235052955e-01  4.8572759951191713e-01  4.8086367279308911e-01  4.6672958609782106e-01  4.7411525097467311e-01  4.9887521325971407e-01  1.9085404600708639e-02  2.4770112187567848e+00  1.7677586341344233e-02  4.2367976485137165e-01  4.5557163100805959e-01  4.7733105660027780e-01  4.6700781350849879e-01  4.8074922932236724e-01  4.8555063305538515e-01  4.9100459695303000e-01  4.9447196172568952e-01  4.9685230582246209e-01  4.9826311180356342e-01  4.9903810972613649e-01  4.9941883304351409e-01  4.9957135890436871e-01  4.9960197598777917e-01  4.9957020649270240e-01  4.9951018737513658e-01  4.9944385292385257e-01  4.9939196728058743e-01  4.9937493165274632e-01  4.9941428978355601e-01  4.9952815553718977e-01  4.9972108097096424e-01  4.9997814867184032e-01  5.0026133570463127e-01  5.0051809734283248e-01  5.0070235406427488e-01  5.0079339512770704e-01  5.0079838752441952e-01  5.0074148850671130e-01  5.0065050887567930e-01  5.0054795335825464e-01  5.0044707856555759e-01  5.0035034845682325e-01  5.0024713343455207e-01  5.0010743592394813e-01  4.9987102288147733e-01  4.9942795893545411e-01  4.9860721121738333e-01  4.9715413057479002e-01  4.9476289479445257e-01  4.9122019268847084e-01  4.8581127309191496e-01  4.8102353271999676e-01  4.6701369755753325e-01  4.7461512016204471e-01  4.9933905811784840e-01  2.0554651227164544e-02  2.4790608480741541e+00  1.7762362667652441e-02  4.2456626624173738e-01  4.5587009326499922e-01  4.7763426689672411e-01  4.6716419776851148e-01  4.8085424926166959e-01  4.8560857686699382e-01  4.9103865284009618e-01  4.9449990038365993e-01  4.9687497010817422e-01  4.9828367912852317e-01  4.9905748341586981e-01  4.9943207633018893e-01  4.9957268917702369e-01  4.9958345829926498e-01  4.9952257311166071e-01  4.9942334291870671e-01  4.9931053912969453e-01  4.9921260303007930e-01  4.9915888541609266e-01  4.9919034697228315e-01  4.9934233868294109e-01  4.9962656815430045e-01  5.0002132429316637e-01  5.0045303482092474e-01  5.0081838308036308e-01  5.0103841282157846e-01  5.0109639835958020e-01  5.0102764590494886e-01  5.0088676528606901e-01  5.0072187847561533e-01  5.0056405729553544e-01  5.0042699785630151e-01  5.0030968514767582e-01  5.0019702409765854e-01  5.0005506194444682e-01  4.9982065415107496e-01  4.9938210139396583e-01  4.9856778439350730e-01  4.9712372082911233e-01  4.9474686989357042e-01  4.9122673669553557e-01  4.8586011946537294e-01  4.8112907529075127e-01  4.6721480817221117e-01  4.7499221733308294e-01  4.9968101248082725e-01  2.1744148142436911e-02  2.4807881264687439e+00  1.7817995352388351e-02  4.2519771718969002e-01  4.5608866632679013e-01  4.7785271439486915e-01  4.6727183074620449e-01  4.8092796923428610e-01  4.8565142065637590e-01  4.9106979891481239e-01  4.9452765707666468e-01  4.9690349523817107e-01  4.9831634467033370e-01  4.9909267134976476e-01  4.9946525552186760e-01  4.9959721867971918e-01  4.9958925247645497e-01  4.9949625113496293e-01  4.9934826689653455e-01  4.9917349286783436e-01  4.9900622564906905e-01  4.9888839040927352e-01  4.9890115500001436e-01  4.9910378913215570e-01  4.9953109039823368e-01  5.0015959467144866e-01  5.0083129457462783e-01  5.0133288376978569e-01  5.0153902973202602e-01  5.0147558368078460e-01  5.0125032249402790e-01  5.0097090043700565e-01  5.0070763413607133e-01  5.0049203134210729e-01  5.0032846760010119e-01  5.0020494104360302e-01  5.0009736521973058e-01  4.9996568478668657e-01  4.9974317303325522e-01  4.9931641025786994e-01  4.9851342191888243e-01  4.9708098715025173e-01  4.9471851383788201e-01  4.9121792038722262e-01  4.8588568021924627e-01  4.8119989750523845e-01  4.6736186422790249e-01  4.7528410315364106e-01  4.9994152944689374e-01  2.2715454504309583e-02  2.4822385194226606e+00  1.7854454334756038e-02  4.2564472354604838e-01  4.5625477578398238e-01  4.7801489023161359e-01  4.6735183259239826e-01  4.8098575732791699e-01  4.8568861549034209e-01  4.9110147627113415e-01  4.9456040124730494e-01  4.9694262214987250e-01  4.9836426831613334e-01  4.9914862522074344e-01  4.9952646546860918e-01  4.9965762779199135e-01  4.9963824530627998e-01  4.9951698046133369e-01  4.9931797335726669e-01  4.9907019881059050e-01  4.9880362458296529e-01  4.9858470475364830e-01  4.9856041953443742e-01  4.9880873992737784e-01  4.9946391711399196e-01  5.0051083530316309e-01  5.0156332096812117e-01  5.0217719297901020e-01  5.0220152272307539e-01  5.0182894486390450e-01  5.0132058512914546e-01  5.0085072251228091e-01  5.0049101279830321e-01  5.0024719570881537e-01  5.0009515211192335e-01  5.0000123442265076e-01  4.9992803014052450e-01  4.9982866596809417e-01  4.9963376339263665e-01  4.9922957375277444e-01  4.9844501233123045e-01  4.9702846397574596e-01  4.9468202171214237e-01  4.9120006014650242e-01  4.8589720094158223e-01  4.8124885487601293e-01  4.6747239091603948e-01  4.7551305328723048e-01  5.0014379941993170e-01  2.3506598968071526e-02  2.4834356886051183e+00  1.7878642789135975e-02  4.2595667898232609e-01  4.5638265226025015e-01  4.7813652956036745e-01  4.6741371854675023e-01  4.8103344469462050e-01  4.8572315892665785e-01  4.9113531454379022e-01  4.9459942842006888e-01  4.9699232891204853e-01  4.9842796817241153e-01  4.9922826882787064e-01  4.9962244679510470e-01  4.9976737514142772e-01  4.9975433086989529e-01  4.9962405322580994e-01  4.9939254291512680e-01  4.9907897259036599e-01  4.9869117577159006e-01  4.9834092797474888e-01  4.9822959113228488e-01  4.9845268723370439e-01  4.9950961618503703e-01  5.0133646425790757e-01  5.0294202693689516e-01  5.0345439330017339e-01  5.0286372473570329e-01  5.0185909381142935e-01  5.0094064605992672e-01  5.0029251875934722e-01  4.9991350553246300e-01  4.9973326131016854e-01  4.9967423322411936e-01  4.9967303389511220e-01  4.9967920087333406e-01  4.9964250954613554e-01  4.9949490094002102e-01  4.9912566924555957e-01  4.9836707418321524e-01  4.9697067805109418e-01  4.9464194810808071e-01  4.9117807544490311e-01  4.8590053137469852e-01  4.8128326574269331e-01  4.6755609187324310e-01  4.7569157404651741e-01  5.0030078747627849e-01  2.4141403384531749e-02  2.4843952366742412e+00  1.7895351798184911e-02  4.2616775936471707e-01  4.5647888663392361e-01  4.7822581506823597e-01  4.6746105911716784e-01  4.8107241891793667e-01  4.8575456902885800e-01  4.9116935966074299e-01  4.9464141698602987e-01  4.9704813419899363e-01  4.9850263224252045e-01  4.9932696592681280e-01  4.9975027629162488e-01  4.9992862149939804e-01  4.9995064249457921e-01  4.9985153535538018e-01  4.9963771183614125e-01  4.9930327008410652e-01  4.9882029560940094e-01  4.9834557983023420e-01  4.9801067882734695e-01  4.9802981287649034e-01  4.9989538439774112e-01  5.0312579497867582e-01  5.0534127807282625e-01  5.0504883257729671e-01  5.0296122588064740e-01  5.0095502942711068e-01  4.9964605635260645e-01  4.9901589384857503e-01  4.9883262069610929e-01  4.9889132369522315e-01  4.9905079787973200e-01  4.9922541308757534e-01  4.9936312019398860e-01  4.9942051639683799e-01  4.9933844785906645e-01  4.9901439212621079e-01  4.9828718929688992e-01  4.9691346133431569e-01  4.9460285159779815e-01  4.9115578849483482e-01  4.8589933402903884e-01  4.8130714427901189e-01  4.6761810228351214e-01  4.7582633221469034e-01  5.0041938754767790e-01  2.4632670368053139e-02  2.4851276650824081e+00  1.7908084334113398e-02  4.2630189964626442e-01  4.5654640376916039e-01  4.7828706144628363e-01  4.6749461361448291e-01  4.8110180440130917e-01  4.8578021530082005e-01  4.9119921114243326e-01  4.9467997049417772e-01  4.9710116726650433e-01  4.9857616506611419e-01  4.9942848043659538e-01  4.9988920008650928e-01  5.0011681856857215e-01  5.0020233902193689e-01  5.0018255695997604e-01  5.0006001601469607e-01  4.9981019290701478e-01  4.9938870558005116e-01  4.9893912856103728e-01  4.9826968053781812e-01  4.9789666825777262e-01  5.0106356213167280e-01  5.0625698953421894e-01  5.0887079359955023e-01  5.0637734135993984e-01  5.0120628624241348e-01  4.9817487472394367e-01  4.9702816975966574e-01  4.9690120333688925e-01  4.9727408879235602e-01  4.9779650888144733e-01  4.9830331114571630e-01  4.9872347829948072e-01  4.9902857700629966e-01  4.9919733204655931e-01  4.9918829017616279e-01  4.9891195407068151e-01  4.9821627911127747e-01  4.9686416407400774e-01  4.9456973017126249e-01  4.9113674101831606e-01  4.8589639173675175e-01  4.8132303511715702e-01  4.6766137921722001e-01  4.7592098574889935e-01  5.0050343430791921e-01  2.4986460178710399e-02  2.4856398061987122e+00  1.7919462977848539e-02  4.2637537901800410e-01  4.5658640393224614e-01  4.7832265702595123e-01  4.6751415407453373e-01  4.8112012707140067e-01  4.8579702028295607e-01  4.9121986482768765e-01  4.9470746081253120e-01  4.9713988824155225e-01  4.9863112541049426e-01  4.9950655648244041e-01  5.0000002990246117e-01  5.0027423590254994e-01  5.0042630144536149e-01  5.0050193935535892e-01  5.0051495111217903e-01  5.0045911899265327e-01  5.0032383891116350e-01  5.0017872852797518e-01  4.9944732942900899e-01  4.9879555254136770e-01  5.0311478608165405e-01  5.0978283578143280e-01  5.1216658298613471e-01  5.0675644371735518e-01  4.9672760300008417e-01  4.9279422810640533e-01  4.9322159080375111e-01  4.9439877103671498e-01  4.9565008650115000e-01  4.9675768975087553e-01  4.9764275422260673e-01  4.9830431094973193e-01  4.9876209612773192e-01  4.9902672280894533e-01  4.9907762447737103e-01  4.9883886247935538e-01  4.9816708162877316e-01  4.9683077118779229e-01  4.9454766568260622e-01  4.9112427459475810e-01  4.8589407714200167e-01  4.8133283917591474e-01  4.6768788571322434e-01  4.7597771716977438e-01  5.0055525494716979e-01  2.5205289623129103e-02  2.4859360895937450e+00  1.7931380735770740e-02  4.2639781927275117e-01  4.5659916037837467e-01  4.7833383180633315e-01  4.6751922138779045e-01  4.8112610263968425e-01  4.8580250777677497e-01  4.9122725396629185e-01  4.9471746908226155e-01  4.9715414610593539e-01  4.9865139040435535e-01  4.9953541494145332e-01  5.0004124305472630e-01  5.0033347648751147e-01  5.0051229223142202e-01  5.0062846344999534e-01  5.0070462772326418e-01  5.0075177831780826e-01  5.0077795277846282e-01  5.0077705354854196e-01  5.0025383772014798e-01  4.9959007313066844e-01  5.0431135168872876e-01  5.1257967499686041e-01  5.1313435419410625e-01  5.0673839766450812e-01  4.9408403648978472e-01  4.8807070478613446e-01  4.9028685522654358e-01  4.9290813776805609e-01  4.9482758387275266e-01  4.9628280738423886e-01  4.9736049569427343e-01  4.9813417599495868e-01  4.9865850740345868e-01  4.9896291075243776e-01  4.9903762996410750e-01  4.9881321597044342e-01  4.9815024154031012e-01  4.9681964776462806e-01  4.9454054824108717e-01  4.9112084818528667e-01  4.8589405768130728e-01  4.8133779985036862e-01  4.6769881606067404e-01  4.759977162903977