<?xml version="1.0"?>
<VTKFile type="UnstructuredGrid"  version="0.1"  >
<UnstructuredGrid>
<Piece  NumberOfPoints="1617" NumberOfCells="3072">
<Points>
<DataArray  type="Float64"  NumberOfComponents="3"  format="ascii">0 0 0  0.03125 0 0  0.0625 0 0  0.09375 0 0  0.125 0 0  0.15625 0 0  0.1875 0 0  0.21875 0 0  0.25 0 0  0.28125 0 0  0.3125 0 0  0.34375 0 0  0.375 0 0  0.40625 0 0  0.4375 0 0  0.46875 0 0  0.5 0 0  0.53125 0 0  0.5625 0 0  0.59375 0 0  0.625 0 0  0.65625 0 0  0.6875 0 0  0.71875 0 0  0.75 0 0  0.78125 0 0  0.8125 0 0  0.84375 0 0  0.875 0 0  0.90625 0 0  0.9375 0 0  0.96875 0 0  1 0 0  1.03125 0 0  1.0625 0 0  1.09375 0 0  1.125 0 0  1.15625 0 0  1.1875 0 0  1.21875 0 0  1.25 0 0  1.28125 0 0  1.3125 0 0  1.34375 0 0  1.375 0 0  1.40625 0 0  1.4375 0 0  1.46875 0 0  1.5 0 0  0 0.03125 0  0.03125 0.03125 0  0.0625 0.03125 0  0.09375 0.03125 0  0.125 0.03125 0  0.15625 0.03125 0  0.1875 0.03125 0  0.21875 0.03125 0  0.25 0.03125 0  0.28125 0.03125 0  0.3125 0.03125 0  0.34375 0.03125 0  0.375 0.03125 0  0.40625 0.03125 0  0.4375 0.03125 0  0.46875 0.03125 0  0.5 0.03125 0  0.53125 0.03125 0  0.5625 0.03125 0  0.59375 0.03125 0  0.625 0.03125 0  0.65625 0.03125 0  0.6875 0.03125 0  0.71875 0.03125 0  0.75 0.03125 0  0.78125 0.03125 0  0.8125 0.03125 0  0.84375 0.03125 0  0.875 0.03125 0  0.90625 0.03125 0  0.9375 0.03125 0  0.96875 0.03125 0  1 0.03125 0  1.03125 0.03125 0  1.0625 0.03125 0  1.09375 0.03125 0  1.125 0.03125 0  1.15625 0.03125 0  1.1875 0.03125 0  1.21875 0.03125 0  1.25 0.03125 0  1.28125 0.03125 0  1.3125 0.03125 0  1.34375 0.03125 0  1.375 0.03125 0  1.40625 0.03125 0  1.4375 0.03125 0  1.46875 0.03125 0  1.5 0.03125 0  0 0.0625 0  0.03125 0.0625 0  0.0625 0.0625 0  0.09375 0.0625 0  0.125 0.0625 0  0.15625 0.0625 0  0.1875 0.0625 0  0.21875 0.0625 0  0.25 0.0625 0  0.28125 0.0625 0  0.3125 0.0625 0  0.34375 0.0625 0  0.375 0.0625 0  0.40625 0.0625 0  0.4375 0.0625 0  0.46875 0.0625 0  0.5 0.0625 0  0.53125 0.0625 0  0.5625 0.0625 0  0.59375 0.0625 0  0.625 0.0625 0  0.65625 0.0625 0  0.6875 0.0625 0  0.71875 0.0625 0  0.75 0.0625 0  0.78125 0.0625 0  0.8125 0.0625 0  0.84375 0.0625 0  0.875 0.0625 0  0.90625 0.0625 0  0.9375 0.0625 0  0.96875 0.0625 0  1 0.0625 0  1.03125 0.0625 0  1.0625 0.0625 0  1.09375 0.0625 0  1.125 0.0625 0  1.15625 0.0625 0  1.1875 0.0625 0  1.21875 0.0625 0  1.25 0.0625 0  1.28125 0.0625 0  1.3125 0.0625 0  1.34375 0.0625 0  1.375 0.0625 0  1.40625 0.0625 0  1.4375 0.0625 0  1.46875 0.0625 0  1.5 0.0625 0  0 0.09375 0  0.03125 0.09375 0  0.0625 0.09375 0  0.09375 0.09375 0  0.125 0.09375 0  0.15625 0.09375 0  0.1875 0.09375 0  0.21875 0.09375 0  0.25 0.09375 0  0.28125 0.09375 0  0.3125 0.09375 0  0.34375 0.09375 0  0.375 0.09375 0  0.40625 0.09375 0  0.4375 0.09375 0  0.46875 0.09375 0  0.5 0.09375 0  0.53125 0.09375 0  0.5625 0.09375 0  0.59375 0.09375 0  0.625 0.09375 0  0.65625 0.09375 0  0.6875 0.09375 0  0.71875 0.09375 0  0.75 0.09375 0  0.78125 0.09375 0  0.8125 0.09375 0  0.84375 0.09375 0  0.875 0.09375 0  0.90625 0.09375 0  0.9375 0.09375 0  0.96875 0.09375 0  1 0.09375 0  1.03125 0.09375 0  1.0625 0.09375 0  1.09375 0.09375 0  1.125 0.09375 0  1.15625 0.09375 0  1.1875 0.09375 0  1.21875 0.09375 0  1.25 0.09375 0  1.28125 0.09375 0  1.3125 0.09375 0  1.34375 0.09375 0  1.375 0.09375 0  1.40625 0.09375 0  1.4375 0.09375 0  1.46875 0.09375 0  1.5 0.09375 0  0 0.125 0  0.03125 0.125 0  0.0625 0.125 0  0.09375 0.125 0  0.125 0.125 0  0.15625 0.125 0  0.1875 0.125 0  0.21875 0.125 0  0.25 0.125 0  0.28125 0.125 0  0.3125 0.125 0  0.34375 0.125 0  0.375 0.125 0  0.40625 0.125 0  0.4375 0.125 0  0.46875 0.125 0  0.5 0.125 0  0.53125 0.125 0  0.5625 0.125 0  0.59375 0.125 0  0.625 0.125 0  0.65625 0.125 0  0.6875 0.125 0  0.71875 0.125 0  0.75 0.125 0  0.78125 0.125 0  0.8125 0.125 0  0.84375 0.125 0  0.875 0.125 0  0.90625 0.125 0  0.9375 0.125 0  0.96875 0.125 0  1 0.125 0  1.03125 0.125 0  1.0625 0.125 0  1.09375 0.125 0  1.125 0.125 0  1.15625 0.125 0  1.1875 0.125 0  1.21875 0.125 0  1.25 0.125 0  1.28125 0.125 0  1.3125 0.125 0  1.34375 0.125 0  1.375 0.125 0  1.40625 0.125 0  1.4375 0.125 0  1.46875 0.125 0  1.5 0.125 0  0 0.15625 0  0.03125 0.15625 0  0.0625 0.15625 0  0.09375 0.15625 0  0.125 0.15625 0  0.15625 0.15625 0  0.1875 0.15625 0  0.21875 0.15625 0  0.25 0.15625 0  0.28125 0.15625 0  0.3125 0.15625 0  0.34375 0.15625 0  0.375 0.15625 0  0.40625 0.15625 0  0.4375 0.15625 0  0.46875 0.15625 0  0.5 0.15625 0  0.53125 0.15625 0  0.5625 0.15625 0  0.59375 0.15625 0  0.625 0.15625 0  0.65625 0.15625 0  0.6875 0.15625 0  0.71875 0.15625 0  0.75 0.15625 0  0.78125 0.15625 0  0.8125 0.15625 0  0.84375 0.15625 0  0.875 0.15625 0  0.90625 0.15625 0  0.9375 0.15625 0  0.96875 0.15625 0  1 0.15625 0  1.03125 0.15625 0  1.0625 0.15625 0  1.09375 0.15625 0  1.125 0.15625 0  1.15625 0.15625 0  1.1875 0.15625 0  1.21875 0.15625 0  1.25 0.15625 0  1.28125 0.15625 0  1.3125 0.15625 0  1.34375 0.15625 0  1.375 0.15625 0  1.40625 0.15625 0  1.4375 0.15625 0  1.46875 0.15625 0  1.5 0.15625 0  0 0.1875 0  0.03125 0.1875 0  0.0625 0.1875 0  0.09375 0.1875 0  0.125 0.1875 0  0.15625 0.1875 0  0.1875 0.1875 0  0.21875 0.1875 0  0.25 0.1875 0  0.28125 0.1875 0  0.3125 0.1875 0  0.34375 0.1875 0  0.375 0.1875 0  0.40625 0.1875 0  0.4375 0.1875 0  0.46875 0.1875 0  0.5 0.1875 0  0.53125 0.1875 0  0.5625 0.1875 0  0.59375 0.1875 0  0.625 0.1875 0  0.65625 0.1875 0  0.6875 0.1875 0  0.71875 0.1875 0  0.75 0.1875 0  0.78125 0.1875 0  0.8125 0.1875 0  0.84375 0.1875 0  0.875 0.1875 0  0.90625 0.1875 0  0.9375 0.1875 0  0.96875 0.1875 0  1 0.1875 0  1.03125 0.1875 0  1.0625 0.1875 0  1.09375 0.1875 0  1.125 0.1875 0  1.15625 0.1875 0  1.1875 0.1875 0  1.21875 0.1875 0  1.25 0.1875 0  1.28125 0.1875 0  1.3125 0.1875 0  1.34375 0.1875 0  1.375 0.1875 0  1.40625 0.1875 0  1.4375 0.1875 0  1.46875 0.1875 0  1.5 0.1875 0  0 0.21875 0  0.03125 0.21875 0  0.0625 0.21875 0  0.09375 0.21875 0  0.125 0.21875 0  0.15625 0.21875 0  0.1875 0.21875 0  0.21875 0.21875 0  0.25 0.21875 0  0.28125 0.21875 0  0.3125 0.21875 0  0.34375 0.21875 0  0.375 0.21875 0  0.40625 0.21875 0  0.4375 0.21875 0  0.46875 0.21875 0  0.5 0.21875 0  0.53125 0.21875 0  0.5625 0.21875 0  0.59375 0.21875 0  0.625 0.21875 0  0.65625 0.21875 0  0.6875 0.21875 0  0.71875 0.21875 0  0.75 0.21875 0  0.78125 0.21875 0  0.8125 0.21875 0  0.84375 0.21875 0  0.875 0.21875 0  0.90625 0.21875 0  0.9375 0.21875 0  0.96875 0.21875 0  1 0.21875 0  1.03125 0.21875 0  1.0625 0.21875 0  1.09375 0.21875 0  1.125 0.21875 0  1.15625 0.21875 0  1.1875 0.21875 0  1.21875 0.21875 0  1.25 0.21875 0  1.28125 0.21875 0  1.3125 0.21875 0  1.34375 0.21875 0  1.375 0.21875 0  1.40625 0.21875 0  1.4375 0.21875 0  1.46875 0.21875 0  1.5 0.21875 0  0 0.25 0  0.03125 0.25 0  0.0625 0.25 0  0.09375 0.25 0  0.125 0.25 0  0.15625 0.25 0  0.1875 0.25 0  0.21875 0.25 0  0.25 0.25 0  0.28125 0.25 0  0.3125 0.25 0  0.34375 0.25 0  0.375 0.25 0  0.40625 0.25 0  0.4375 0.25 0  0.46875 0.25 0  0.5 0.25 0  0.53125 0.25 0  0.5625 0.25 0  0.59375 0.25 0  0.625 0.25 0  0.65625 0.25 0  0.6875 0.25 0  0.71875 0.25 0  0.75 0.25 0  0.78125 0.25 0  0.8125 0.25 0  0.84375 0.25 0  0.875 0.25 0  0.90625 0.25 0  0.9375 0.25 0  0.96875 0.25 0  1 0.25 0  1.03125 0.25 0  1.0625 0.25 0  1.09375 0.25 0  1.125 0.25 0  1.15625 0.25 0  1.1875 0.25 0  1.21875 0.25 0  1.25 0.25 0  1.28125 0.25 0  1.3125 0.25 0  1.34375 0.25 0  1.375 0.25 0  1.40625 0.25 0  1.4375 0.25 0  1.46875 0.25 0  1.5 0.25 0  0 0.28125 0  0.03125 0.28125 0  0.0625 0.28125 0  0.09375 0.28125 0  0.125 0.28125 0  0.15625 0.28125 0  0.1875 0.28125 0  0.21875 0.28125 0  0.25 0.28125 0  0.28125 0.28125 0  0.3125 0.28125 0  0.34375 0.28125 0  0.375 0.28125 0  0.40625 0.28125 0  0.4375 0.28125 0  0.46875 0.28125 0  0.5 0.28125 0  0.53125 0.28125 0  0.5625 0.28125 0  0.59375 0.28125 0  0.625 0.28125 0  0.65625 0.28125 0  0.6875 0.28125 0  0.71875 0.28125 0  0.75 0.28125 0  0.78125 0.28125 0  0.8125 0.28125 0  0.84375 0.28125 0  0.875 0.28125 0  0.90625 0.28125 0  0.9375 0.28125 0  0.96875 0.28125 0  1 0.28125 0  1.03125 0.28125 0  1.0625 0.28125 0  1.09375 0.28125 0  1.125 0.28125 0  1.15625 0.28125 0  1.1875 0.28125 0  1.21875 0.28125 0  1.25 0.28125 0  1.28125 0.28125 0  1.3125 0.28125 0  1.34375 0.28125 0  1.375 0.28125 0  1.40625 0.28125 0  1.4375 0.28125 0  1.46875 0.28125 0  1.5 0.28125 0  0 0.3125 0  0.03125 0.3125 0  0.0625 0.3125 0  0.09375 0.3125 0  0.125 0.3125 0  0.15625 0.3125 0  0.1875 0.3125 0  0.21875 0.3125 0  0.25 0.3125 0  0.28125 0.3125 0  0.3125 0.3125 0  0.34375 0.3125 0  0.375 0.3125 0  0.40625 0.3125 0  0.4375 0.3125 0  0.46875 0.3125 0  0.5 0.3125 0  0.53125 0.3125 0  0.5625 0.3125 0  0.59375 0.3125 0  0.625 0.3125 0  0.65625 0.3125 0  0.6875 0.3125 0  0.71875 0.3125 0  0.75 0.3125 0  0.78125 0.3125 0  0.8125 0.3125 0  0.84375 0.3125 0  0.875 0.3125 0  0.90625 0.3125 0  0.9375 0.3125 0  0.96875 0.3125 0  1 0.3125 0  1.03125 0.3125 0  1.0625 0.3125 0  1.09375 0.3125 0  1.125 0.3125 0  1.15625 0.3125 0  1.1875 0.3125 0  1.21875 0.3125 0  1.25 0.3125 0  1.28125 0.3125 0  1.3125 0.3125 0  1.34375 0.3125 0  1.375 0.3125 0  1.40625 0.3125 0  1.4375 0.3125 0  1.46875 0.3125 0  1.5 0.3125 0  0 0.34375 0  0.03125 0.34375 0  0.0625 0.34375 0  0.09375 0.34375 0  0.125 0.34375 0  0.15625 0.34375 0  0.1875 0.34375 0  0.21875 0.34375 0  0.25 0.34375 0  0.28125 0.34375 0  0.3125 0.34375 0  0.34375 0.34375 0  0.375 0.34375 0  0.40625 0.34375 0  0.4375 0.34375 0  0.46875 0.34375 0  0.5 0.34375 0  0.53125 0.34375 0  0.5625 0.34375 0  0.59375 0.34375 0  0.625 0.34375 0  0.65625 0.34375 0  0.6875 0.34375 0  0.71875 0.34375 0  0.75 0.34375 0  0.78125 0.34375 0  0.8125 0.34375 0  0.84375 0.34375 0  0.875 0.34375 0  0.90625 0.34375 0  0.9375 0.34375 0  0.96875 0.34375 0  1 0.34375 0  1.03125 0.34375 0  1.0625 0.34375 0  1.09375 0.34375 0  1.125 0.34375 0  1.15625 0.34375 0  1.1875 0.34375 0  1.21875 0.34375 0  1.25 0.34375 0  1.28125 0.34375 0  1.3125 0.34375 0  1.34375 0.34375 0  1.375 0.34375 0  1
[...]
<PointData  Scalars="f_65"> 
<DataArray  type="Float64"  Name="f_65"  format="ascii">1.3315372468514510e+00  5.4474912844812395e-01  5.4673394408723885e-01  5.9677621982598195e-01  6.0480688749916878e-01  6.0436036038669483e-01  6.0000896320924801e-01  5.9437119624696777e-01  5.8847306266390564e-01  5.8263315683761319e-01  5.7693367398089601e-01  5.7138980163120279e-01  5.6599886787767328e-01  5.6075346326980924e-01  5.5564500576459819e-01  5.5066471161457431e-01  5.4580375239393375e-01  5.4105321333089240e-01  5.3640397924924366e-01  5.3184662593035648e-01  5.2737137156535518e-01  5.2296813500748351e-01  5.1862674020044952e-01  5.1433727956189634e-01  5.1009060940207496e-01  5.0587890192682172e-01  5.0169614663808104e-01  4.9753848046996108e-01  4.9340427109243185e-01  4.8929391137827832e-01  4.8520940237576904e-01  4.8115375902073571e-01  4.7713045774480167e-01  4.7314285656741367e-01  4.6919387036404603e-01  4.6528574477494988e-01  4.6141963754046084e-01  4.5759634096069146e-01  4.5381445028775236e-01  4.5006723529399739e-01  4.4634863158656268e-01  4.4264366018483492e-01  4.3834929978475640e-01  4.3696654902586651e-01  4.1487794524421423e-01  4.7384948167062646e-01  2.2263366182990893e-01  4.7154619045949980e-01  6.1488915009605516e-02  1.6042473569016218e+00  3.5678524392103639e-01  3.6975896604180869e-01  4.6199659408554283e-01  4.7650925111315012e-01  4.8111171171057787e-01  4.8354733628708657e-01  4.8496333660444274e-01  4.8613524471059033e-01  4.8724020276930469e-01  4.8831297385186678e-01  4.8935905759988735e-01  4.9038036220232495e-01  4.9137869670902840e-01  4.9235621070384156e-01  4.9331530128121670e-01  4.9425854914299688e-01  4.9518862384783224e-01  4.9610813951940708e-01  4.9701947054054807e-01  4.9792454125543073e-01  4.9882462796393140e-01  4.9972021904510278e-01  5.0061097771872409e-01  5.0149583607684023e-01  5.0237321888482056e-01  5.0324136035791589e-01  5.0409864855875286e-01  5.0494392399280030e-01  5.0577667403328375e-01  5.0659709910805784e-01  5.0740606329456839e-01  5.0820495951517497e-01  5.0899556078432850e-01  5.0977980111231447e-01  5.1055977033700939e-01  5.1133719970234337e-01  5.1211391704388065e-01  5.1289015436105423e-01  5.1366276768320873e-01  5.1441869000074625e-01  5.1514457780086864e-01  5.1538051214842440e-01  5.1687548531820005e-01  5.0541765989639176e-01  5.3836229622870280e-01  4.0014194127278213e-01  5.0145130618104106e-01  8.0885554481160749e-02  1.5960302277072456e+00  3.6281061977769535e-01  3.7763550063555562e-01  4.9203155871631049e-01  5.0018337848999528e-01  5.0077868994508146e-01  5.0195747120227108e-01  5.0206515568184296e-01  5.0202041180738222e-01  5.0195864033834736e-01  5.0189659321830304e-01  5.0183271846753985e-01  5.0176600957845308e-01  5.0169606507296782e-01  5.0162258031871509e-01  5.0154521448638612e-01  5.0146358164731319e-01  5.0137721912164801e-01  5.0128557200352342e-01  5.0118797527560521e-01  5.0108364390130666e-01  5.0097167885639537e-01  5.0085109166831498e-01  5.0072084950899953e-01  5.0057994027503883e-01  5.0042745254271204e-01  5.0026266220087023e-01  5.0008510398401784e-01  4.9989461328803331e-01  4.9969130988634519e-01  4.9947555223162421e-01  4.9924783244085008e-01  4.9900872401347096e-01  4.9875875621115623e-01  4.9849844060591886e-01  4.9822820713997301e-01  4.9794824890369432e-01  4.9765916873467553e-01  4.9735967610788123e-01  4.9704970447644548e-01  4.9671511045502426e-01  4.9636299009047374e-01  4.9556757935579099e-01  4.9598080887803958e-01  4.8466685024658501e-01  5.1699425918262587e-01  3.7003863540930282e-01  5.0447659624120367e-01  5.4756389635713332e-02  1.6049322451302941e+00  3.6284644006439298e-01  3.7803527274409948e-01  4.9468052156648273e-01  4.9649228983588861e-01  4.9658837983740550e-01  4.9853393227132087e-01  4.9878888317176412e-01  4.9892121905174197e-01  4.9902328390183365e-01  4.9911304856590927e-01  4.9919616916915049e-01  4.9927497808519078e-01  4.9935023358012814e-01  4.9942217304901898e-01  4.9949096996364167e-01  4.9955676911135299e-01  4.9961967007191432e-01  4.9967969217865327e-01  4.9973673714544387e-01  4.9979055850288401e-01  4.9984074537929085e-01  4.9988672599007500e-01  4.9992779808450366e-01  4.9996319322892796e-01  4.9999217870059182e-01  5.0001418658894914e-01  5.0002893375249469e-01  5.0003648694972225e-01  5.0003723595791050e-01  5.0003179326724256e-01  5.0002084733095431e-01  5.0000504247121691e-01  4.9998489197636792e-01  4.9996071716747970e-01  4.9993278477208120e-01  4.9990089318120740e-01  4.9986546586432939e-01  4.9982498447091167e-01  4.9977852328150618e-01  4.9971581395650411e-01  4.9963626383316490e-01  4.9914336557667943e-01  4.9991999085136046e-01  4.8875357034567413e-01  5.2305018223887334e-01  3.7657579903678312e-01  5.1622955537083970e-01  6.4126879434414585e-02  1.6075958677842899e+00  3.6457901228212364e-01  3.8258983574392941e-01  4.9788185452132305e-01  4.9758808677832306e-01  4.9845689053558062e-01  5.0054447467750551e-01  5.0055626806363995e-01  5.0057295110321565e-01  5.0054132892081993e-01  5.0049628039919025e-01  5.0045225056284204e-01  5.0041145464892545e-01  5.0037404857157786e-01  5.0034004309423252e-01  5.0030955138972677e-01  5.0028273547815882e-01  5.0025974769590487e-01  5.0024066055407057e-01  5.0022540595829734e-01  5.0021369207387345e-01  5.0020494816118577e-01  5.0019829273579941e-01  5.0019255185897271e-01  5.0018635528837951e-01  5.0017833245425247e-01  5.0016739068274274e-01  5.0015298829228838e-01  5.0013528261349671e-01  5.0011506598019628e-01  5.0009354441027265e-01  5.0007203354494634e-01  5.0005174124905083e-01  5.0003359013095527e-01  5.0001820787037932e-01  5.0000596612310289e-01  4.9999679990493545e-01  4.9999095477666955e-01  4.9998694120266340e-01  4.9998364751410146e-01  4.9996873041330608e-01  4.9994913012706821e-01  4.9950058504207140e-01  5.0039359084947399e-01  4.8926085162770544e-01  5.2379328743180198e-01  3.7697967838148982e-01  5.2033122010411470e-01  6.6375858973508242e-02  1.6094182709019322e+00  3.6511366388529753e-01  3.8250875317208061e-01  4.9703265024006815e-01  4.9667503849155598e-01  4.9796235701589786e-01  4.9994425877629178e-01  4.9996658820183276e-01  5.0007329152087410e-01  5.0008629065116261e-01  5.0008251491469979e-01  5.0007859156036694e-01  5.0007497002037438e-01  5.0007231013463804e-01  5.0007097130674161e-01  5.0007130527136079e-01  5.0007373629477658e-01  5.0007865911034266e-01  5.0008642022231775e-01  5.0009719374062456e-01  5.0011080240764694e-01  5.0012662107082573e-01  5.0014345001236982e-01  5.0015948627084816e-01  5.0017245634751373e-01  5.0017997955678295e-01  5.0018013936700190e-01  5.0017206193838570e-01  5.0015618550025676e-01  5.0013405729975802e-01  5.0010781806058691e-01  5.0007963050464532e-01  5.0005130306424272e-01  5.0002410377608930e-01  4.9999876866216869e-01  4.9997568107442519e-01  4.9995462494453385e-01  4.9993584450546474e-01  4.9991744763065699e-01  4.9989870466614605e-01  4.9986590832182870e-01  4.9982900138887826e-01  4.9935752222097107e-01  5.0025092729553011e-01  4.8905790692032552e-01  5.2372600795091118e-01  3.7656986262361070e-01  5.2108059570465293e-01  6.5112793507914241e-02  1.6109146652927977e+00  3.6536519516510207e-01  3.8233229624964904e-01  4.9693335360171154e-01  4.9676439806819611e-01  4.9804856106964773e-01  4.9994625585957458e-01  5.0001764703739005e-01  5.0014283324645370e-01  5.0014603404778624e-01  5.0013816036096215e-01  5.0012869340372712e-01  5.0011833612357759e-01  5.0010908081860295e-01  5.0010139443167323e-01  5.0009584980329447e-01  5.0009313907474717e-01  5.0009396047529453e-01  5.0009916189898118e-01  5.0010934042731248e-01  5.0012461441787837e-01  5.0014448846342419e-01  5.0016739630811202e-01  5.0019056562011455e-01  5.0021016604323898e-01  5.0022196992240542e-01  5.0022256803684451e-01  5.0021063656720266e-01  5.0018738177556421e-01  5.0015589000299499e-01  5.0011994092575363e-01  5.0008294787248753e-01  5.0004742158830962e-01  5.0001484379684513e-01  4.9998585457466993e-01  4.9996055773929965e-01  4.9993844029907414e-01  4.9991939503407823e-01  4.9990130374479852e-01  4.9988320350400700e-01  4.9985094990993739e-01  4.9981677300912147e-01  4.9934459266888137e-01  5.0026430756795248e-01  4.8904326017786076e-01  5.2382955755538763e-01  3.7635181811141905e-01  5.2179020280590549e-01  6.5035274154162076e-02  1.6122014093454906e+00  3.6548625506460719e-01  3.8208558327113357e-01  4.9685618648051133e-01  4.9676719093177890e-01  4.9801318859679189e-01  4.9990831782324979e-01  5.0000497966646396e-01  5.0012511774223567e-01  5.0012740861475202e-01  5.0012272845014250e-01  5.0011329837919094e-01  5.0010228683199642e-01  5.0009211322290437e-01  5.0008304564597550e-01  5.0007599156459881e-01  5.0007189925646700e-01  5.0007200443894539e-01  5.0007809845854789e-01  5.0009141682306935e-01  5.0011298441429464e-01  5.0014306217461046e-01  5.0017969774599280e-01  5.0021864656669868e-01  5.0025326713928819e-01  5.0027566305685289e-01  5.0027950966639878e-01  5.0026302397066891e-01  5.0022948472863660e-01  5.0018519256254501e-01  5.0013678874624024e-01  5.0008945574310959e-01  5.0004637159334586e-01  5.0000893514790457e-01  4.9997732495126540e-01  4.9995108986179698e-01  4.9992917959376887e-01  4.9991109995837762e-01  4.9989432883076018e-01  4.9987791945492499e-01  4.9984704749152686e-01  4.9981638705888665e-01  4.9934532039996826e-01  5.0028786556027249e-01  4.8904614095122440e-01  5.2393089377375013e-01  3.7617792308007625e-01  5.2226923033139827e-01  6.4948636148577876e-02  1.6133155192543585e+00  3.6556145399026307e-01  3.8186689659331730e-01  4.9679585714946184e-01  4.9676827480740116e-01  4.9800422309172054e-01  4.9989630505369198e-01  4.9999070219735497e-01  5.0010683530547428e-01  5.0011257836782608e-01  5.0010933639783106e-01  5.0009926385963466e-01  5.0008741118499878e-01  5.0007561328119188e-01  5.0006414487889517e-01  5.0005417380682626e-01  5.0004672421154861e-01  5.0004398985849552e-01  5.0004894756840701e-01  5.0006364205935250e-01  5.0009193968104959e-01  5.0013590909561723e-01  5.0019307925882706e-01  5.0025748142290494e-01  5.0031714612020095e-01  5.0035613631938369e-01  5.0036214740343787e-01  5.0033383243984453e-01  5.0028009879989388e-01  5.0021387732091505e-01  5.0014645221206389e-01  5.0008499422483388e-01  5.0003273519547931e-01  4.9999017154274999e-01  4.9995633616419299e-01  4.9992975099672365e-01  4.9990858695384149e-01  4.9989181019324247e-01  4.9987654411977345e-01  4.9986174347898149e-01  4.9983225612720245e-01  4.9980450666486287e-01  4.9933495532385586e-01  5.0029613030112063e-01  4.8903877085565017e-01  5.2400212790289924e-01  3.7602054043430749e-01  5.2262461958916950e-01  6.4834161138177915e-02  1.6142635948110240e+00  3.6560418926168409e-01  3.8167784831892188e-01  4.9675290711233211e-01  4.9677938427201812e-01  4.9800768920934868e-01  4.9988929148923211e-01  4.9997995972811449e-01  5.0009637175868160e-01  5.0010352471712149e-01  5.0009963430606164e-01  5.0008865175321959e-01  5.0007538413073704e-01  5.0006099739747290e-01  5.0004591691371625e-01  5.0003093028719081e-01  5.0001707172215204e-01  5.0000783121070413e-01  5.0000667273722033e-01  5.0001783332165062e-01  5.0005260156978271e-01  5.0011477053728115e-01  5.0020264708512341e-01  5.0031114046194702e-01  5.0041646102626280e-01  5.0048270637765635e-01  5.0048532055741024e-01  5.0042866101147543e-01  5.0033667615355015e-01  5.0023514539913161e-01  5.0014156932375153e-01  5.0006391386954474e-01  5.0000351093167961e-01  4.9995830851854461e-01  4.9992514560898305e-01  4.9990097583390292e-01  4.9988297045934843e-01  4.9986953181743121e-01  4.9985745921332270e-01  4.9984569598194201e-01  4.9981885801185633e-01  4.9979487690403368e-01  4.9932813318166452e-01  5.0030555543940447e-01  4.8903778314752544e-01  5.2406529612121588e-01  3.7589540046758640e-01  5.2291104398618571e-01  6.4747257553184154e-02  1.6150583546977677e+00  3.6562605787299796e-01  3.8151779409895287e-01  4.9672153233148486e-01  4.9679035698850260e-01  4.9801067132675797e-01  4.9988308224296224e-01  4.9997190527306129e-01  5.0008801542166292e-01  5.0009494159344581e-01  5.0009066978215044e-01  5.0007919239121013e-01  5.0006449250540541e-01  5.0004739614436666e-01  5.0002812907448380e-01  5.0000604300511997e-01  4.9998274660861203e-01  4.9996141707600950e-01  4.9994478619346111e-01  4.9994393034827311e-01  4.9998248293726372e-01  5.0006210792138583e-01  5.0019534043600999e-01  5.0038977318953959e-01  5.0058656668755774e-01  5.0069564755229456e-01  5.0067137761662261e-01  5.0054711536028451e-01  5.0038447117436657e-01  5.0022996305675382e-01  5.0010507630916767e-01  5.0001339576342529e-01  4.9995003108018976e-01  4.9990783570551994e-01  4.9988029288097935e-01  4.9986245252726658e-01  4.9985053308593730e-01  4.9984254339060563e-01  4.9983517077502559e-01  4.9982747225720858e-01  4.9980405205173023e-01  4.9978405162977640e-01  4.9932062295395696e-01  5.0031148301390749e-01  4.8903699749697760e-01  5.2411558348952358e-01  3.7579276733698724e-01  5.2314285648896941e-01  6.4672247044737702e-02  1.6157110851338163e+00  3.6563340912086312e-01  3.8138374822601800e-01  4.9669773954782670e-01  4.9679950537814183e-01  4.9801372112254749e-01  4.9987916741176697e-01  4.9996627795249365e-01  5.0008158596147878e-01  5.0008851722909908e-01  5.0008444728951496e-01  5.0007277214120072e-01  5.0005707885109385e-01  5.0003785846689830e-01  5.0001447904467422e-01  4.9998419681022926e-01  4.9994974103145440e-01  4.9990733711405250e-01  4.9986209411583926e-01  4.9983358409458478e-01  4.9985702168384877e-01  4.9992891242490284e-01  5.0013683864458436e-01  5.0052915641736340e-01  5.0092038627085855e-01  5.0107494684507192e-01  5.0093878061335873e-01  5.0065980280026867e-01  5.0037816589345618e-01  5.0015789826895540e-01  5.0000847240128032e-01  4.9991618276295668e-01  4.9986314168836404e-01  4.9983462805618750e-01  4.9982048172208404e-01  4.9981433444020534e-01  4.9981208989256243e-01  4.9981191000692365e-01  4.9981077855504663e-01  4.9980812775915856e-01  4.9978878123964510e-01  4.9977292056060152e-01  4.9931310467061651e-01  5.0031491706490350e-01  4.8903671870313969e-01  5.2415500934220416e-01  3.7571116225174866e-01  5.2333153925173026e-01  6.4611777181406121e-02  1.6162318200286492e+00  3.6563099990374442e-01  3.8127383623570027e-01  4.9667978421582959e-01  4.9680698151908365e-01  4.9801689291563611e-01  4.9987674671372812e-01  4.9996227787555098e-01  5.0007713659652608e-01  5.0008452215219978e-01  5.0008106250795292e-01  5.0006988090645554e-01  5.0005442964300240e-01  5.0003480879358486e-01  5.0000919356944806e-01  4.9997307061415469e-01  4.9992789325356485e-01  4.9985342489657714e-01  4.9976881346857444e-01  4.9966991385084225e-01  4.9961234239782115e-01  4.9958819305691865e-01  4.9997417335956557e-01  5.0088017184439826e-01  5.0165247625261788e-01  5.0173617885451172e-01  5.0122707127307176e-01  5.0063534348996852e-01  5.0020169162744055e-01  4.9994354859787637e-01  4.9981080167525466e-01  4.9975344095673407e-01  4.9973608365128519e-01  4.9973773252779874e-01  4.9974714737217002e-01  4.9975878382827971e-01  4.9976979895770635e-01  4.9977950522692799e-01  4.9978580071093714e-01  4.9978883202974023e-01  4.9977389961775254e-01  4.9976209028653884e-01  4.9930587065234744e-01  5.0031627064688311e-01  4.8903659950939660e-01  5.2418453521569019e-01  3.7564864654127805e-01  5.2348234841484309e-01  6.4564835308322424e-02  1.6166291347818256e+00  3.6562235659735870e-01  3.8118705440150025e-01  4.9666706030275831e-01  4.9681314781499747e-01  4.9802002317488964e-01  4.9987540737584618e-01  4.9995974838426965e-01  5.0007453989887318e-01  5.0008263816984833e-01  5.0008026588780108e-01  5.0007056179069254e-01  5.0005704618836422e-01  5.0003974268587026e-01  5.0001611207552665e-01  4.9998070071706086e-01  4.9992868981847149e-01  4.9982298064113279e-01  4.9969477598435297e-01  4.9942087280776271e-01  4.9915978591910820e-01  4.9881460388480980e-01  4.9978976267479419e-01  5.0195755601034708e-01  5.0320457536902963e-01  5.0262965777501944e-01  5.0109737079536076e-01  5.0004227434900739e-01  4.9959337733248560e-01  4.9946225386406129e-01  4.9946593020583385e-01  4.9951411617583164e-01  4.9957101216925509e-01  4.9962303915346679e-01  4.9966631932329830e-01  4.9970085757387744e-01  4.9972757982637162e-01  4.9974825807820872e-01  4.9976238110661569e-01  4.9977113393146644e-01  4.9976049970677883e-01  4.9975233862108925e-01  4.9929937166340710e-01  5.0031605240313826e-01  4.8903650847930413e-01  5.2420502576099426e-01  3.7560404141744846e-01  5.2359776956841964e-01  6.4530105820856665e-02  1.6169099600544095e+00  3.6561009826285323e-01  3.8112290570674412e-01  4.9665930048985568e-01  4.9681819107913522e-01  4.9802296517201644e-01  4.9987495943303140e-01  4.9995845453263155e-01  5.0007336174428918e-01  5.0008228021365819e-01  5.0008132194947941e-01  5.0007380624057018e-01  5.0006367241384930e-01  5.0005161082037386e-01  5.0003599222572481e-01  5.0001298508286685e-01  4.9997461213291794e-01  4.9988662047972932e-01  4.9976105978606289e-01  4.9931786496387515e-01  4.9891487162714027e-01  4.9785743749841394e-01  5.0062485130528211e-01  5.0467983883408174e-01  5.0546215634851444e-01  5.0285756346109889e-01  4.9927079507523792e-01  4.9788097498191147e-01  4.9806598179178946e-01  4.9855473569429087e-01  4.9894597342102726e-01  4.9921151093825605e-01  4.9938749761100021e-01  4.9950681851628387e-01  4.9958975932791050e-01  4.9964866179268025e-01  4.9969094633436950e-01  4.9972192075947358e-01  4.9974308787882127e-01  4.9975680275551188e-01  4.9974980074890463e-01  4.9974452052452378e-01  4.9929414088711288e-01  5.0031478991739331e-01  4.8903644275199665e-01  5.2421722354489975e-01  3.7557662340837128e-01  5.2367883025323625e-01  6.4506380500146981e-02  1.6170794219550297e+00  3.6559606261812100e-01  3.8108115512258678e-01  4.9665636816435077e-01  4.9682224029693400e-01  4.9802564228653590e-01  4.9987523712136428e-01  4.9995805462086262e-01  5.0007305581513350e-01  5.0008264064977037e-01  5.0008293670079607e-01  5.0007751345987805e-01  5.0007098245615966e-01  5.0006537745371449e-01  5.0006184212292482e-01  5.0006221294513420e-01  5.0006731858570319e-01  5.0006708703005320e-01  5.0003447723130345e-01  4.9964423054947316e-01  4.9899679113118572e-01  4.9609478618739461e-01  5.0256281995298568e-01  5.0718500032293545e-01  5.0496206141535638e-01  4.9968899628642494e-01  4.9436550041416899e-01  4.9350302264762591e-01  4.9532144161820230e-01  4.9721907305568297e-01  4.9832764928944329e-01  4.9891261510136387e-01  4.9923028482945259e-01  4.9941643810869013e-01  4.9953385151466462e-01  4.9961209933194095e-01  4.9966601306402086e-01  4.9970436313139605e-01  4.9973042817427860e-01  4.9974749562582810e-01  4.9974291174478297e-01  4.9973939183746302e-01  4.9929065579647447e-01  5.0031290236756332e-01  4.8903643564977112e-01  5.2422164441525076e-01  3.7556595922682140e-01  5.2372580525657053e-01  6.4492596371816410e-02  1.6171406697081179e+00  3.6558129843828785e-01  3.8106166160331140e-01  4.9665817164156273e-01  4.9682539039776019e-01  4.9802801090273874e-01  4.9987610323102305e-01  4.9995826166068114e-01  5.0007316534634216e-01  5.0008296084187609e-01  5.0008377552080618e-01  5.0007927743224345e-01  5.0007445453102128e-01  5.0007212638610976e-01  5.0007511399114957e-01  5.0008854816036374e-01  5.0011875984214349e-01  5.0016372848369095e-01  5.0016047266824382e-01  4.9982496172533636e-01  4.9855367397861272e-01  4.9439616226372779e-01  5.0299374361783389e-01  4.9869972497025483e-01  5.0099666451497182e-01  4.9457219050222345e-01  4.7845776483820412e-01  4.8920448624757851e-01  4.9316031980155323e-01  4.9629316262363138e-01  4.9798242673330051e-01  4.9877829708358501e-01  4.9917040318735079e-01  4.9938479197393409e-01  4.9951491669396625e-01  4.9959986229766229e-01  4.9965770887067201e-01  4.9969852933919223e-01  4.9972623387770898e-01  4.9974438966203455e-01  4.9974060643997176e-01  4.9973746732858576e-01  4.9928924865446594e-01  5.0031063948707633e-01  4.8903652899749755e-01  5.2421855927237404e