<?xml version="1.0"?>
<VTKFile type="UnstructuredGrid"  version="0.1"  >
<UnstructuredGrid>
<Piece  NumberOfPoints="1617" NumberOfCells="3072">
<Points>
<DataArray  type="Float64"  NumberOfComponents="3"  format="ascii">0 0 0  0.03125 0 0  0.0625 0 0  0.09375 0 0  0.125 0 0  0.15625 0 0  0.1875 0 0  0.21875 0 0  0.25 0 0  0.28125 0 0  0.3125 0 0  0.34375 0 0  0.375 0 0  0.40625 0 0  0.4375 0 0  0.46875 0 0  0.5 0 0  0.53125 0 0  0.5625 0 0  0.59375 0 0  0.625 0 0  0.65625 0 0  0.6875 0 0  0.71875 0 0  0.75 0 0  0.78125 0 0  0.8125 0 0  0.84375 0 0  0.875 0 0  0.90625 0 0  0.9375 0 0  0.96875 0 0  1 0 0  1.03125 0 0  1.0625 0 0  1.09375 0 0  1.125 0 0  1.15625 0 0  1.1875 0 0  1.21875 0 0  1.25 0 0  1.28125 0 0  1.3125 0 0  1.34375 0 0  1.375 0 0  1.40625 0 0  1.4375 0 0  1.46875 0 0  1.5 0 0  0 0.03125 0  0.03125 0.03125 0  0.0625 0.03125 0  0.09375 0.03125 0  0.125 0.03125 0  0.15625 0.03125 0  0.1875 0.03125 0  0.21875 0.03125 0  0.25 0.03125 0  0.28125 0.03125 0  0.3125 0.03125 0  0.34375 0.03125 0  0.375 0.03125 0  0.40625 0.03125 0  0.4375 0.03125 0  0.46875 0.03125 0  0.5 0.03125 0  0.53125 0.03125 0  0.5625 0.03125 0  0.59375 0.03125 0  0.625 0.03125 0  0.65625 0.03125 0  0.6875 0.03125 0  0.71875 0.03125 0  0.75 0.03125 0  0.78125 0.03125 0  0.8125 0.03125 0  0.84375 0.03125 0  0.875 0.03125 0  0.90625 0.03125 0  0.9375 0.03125 0  0.96875 0.03125 0  1 0.03125 0  1.03125 0.03125 0  1.0625 0.03125 0  1.09375 0.03125 0  1.125 0.03125 0  1.15625 0.03125 0  1.1875 0.03125 0  1.21875 0.03125 0  1.25 0.03125 0  1.28125 0.03125 0  1.3125 0.03125 0  1.34375 0.03125 0  1.375 0.03125 0  1.40625 0.03125 0  1.4375 0.03125 0  1.46875 0.03125 0  1.5 0.03125 0  0 0.0625 0  0.03125 0.0625 0  0.0625 0.0625 0  0.09375 0.0625 0  0.125 0.0625 0  0.15625 0.0625 0  0.1875 0.0625 0  0.21875 0.0625 0  0.25 0.0625 0  0.28125 0.0625 0  0.3125 0.0625 0  0.34375 0.0625 0  0.375 0.0625 0  0.40625 0.0625 0  0.4375 0.0625 0  0.46875 0.0625 0  0.5 0.0625 0  0.53125 0.0625 0  0.5625 0.0625 0  0.59375 0.0625 0  0.625 0.0625 0  0.65625 0.0625 0  0.6875 0.0625 0  0.71875 0.0625 0  0.75 0.0625 0  0.78125 0.0625 0  0.8125 0.0625 0  0.84375 0.0625 0  0.875 0.0625 0  0.90625 0.0625 0  0.9375 0.0625 0  0.96875 0.0625 0  1 0.0625 0  1.03125 0.0625 0  1.0625 0.0625 0  1.09375 0.0625 0  1.125 0.0625 0  1.15625 0.0625 0  1.1875 0.0625 0  1.21875 0.0625 0  1.25 0.0625 0  1.28125 0.0625 0  1.3125 0.0625 0  1.34375 0.0625 0  1.375 0.0625 0  1.40625 0.0625 0  1.4375 0.0625 0  1.46875 0.0625 0  1.5 0.0625 0  0 0.09375 0  0.03125 0.09375 0  0.0625 0.09375 0  0.09375 0.09375 0  0.125 0.09375 0  0.15625 0.09375 0  0.1875 0.09375 0  0.21875 0.09375 0  0.25 0.09375 0  0.28125 0.09375 0  0.3125 0.09375 0  0.34375 0.09375 0  0.375 0.09375 0  0.40625 0.09375 0  0.4375 0.09375 0  0.46875 0.09375 0  0.5 0.09375 0  0.53125 0.09375 0  0.5625 0.09375 0  0.59375 0.09375 0  0.625 0.09375 0  0.65625 0.09375 0  0.6875 0.09375 0  0.71875 0.09375 0  0.75 0.09375 0  0.78125 0.09375 0  0.8125 0.09375 0  0.84375 0.09375 0  0.875 0.09375 0  0.90625 0.09375 0  0.9375 0.09375 0  0.96875 0.09375 0  1 0.09375 0  1.03125 0.09375 0  1.0625 0.09375 0  1.09375 0.09375 0  1.125 0.09375 0  1.15625 0.09375 0  1.1875 0.09375 0  1.21875 0.09375 0  1.25 0.09375 0  1.28125 0.09375 0  1.3125 0.09375 0  1.34375 0.09375 0  1.375 0.09375 0  1.40625 0.09375 0  1.4375 0.09375 0  1.46875 0.09375 0  1.5 0.09375 0  0 0.125 0  0.03125 0.125 0  0.0625 0.125 0  0.09375 0.125 0  0.125 0.125 0  0.15625 0.125 0  0.1875 0.125 0  0.21875 0.125 0  0.25 0.125 0  0.28125 0.125 0  0.3125 0.125 0  0.34375 0.125 0  0.375 0.125 0  0.40625 0.125 0  0.4375 0.125 0  0.46875 0.125 0  0.5 0.125 0  0.53125 0.125 0  0.5625 0.125 0  0.59375 0.125 0  0.625 0.125 0  0.65625 0.125 0  0.6875 0.125 0  0.71875 0.125 0  0.75 0.125 0  0.78125 0.125 0  0.8125 0.125 0  0.84375 0.125 0  0.875 0.125 0  0.90625 0.125 0  0.9375 0.125 0  0.96875 0.125 0  1 0.125 0  1.03125 0.125 0  1.0625 0.125 0  1.09375 0.125 0  1.125 0.125 0  1.15625 0.125 0  1.1875 0.125 0  1.21875 0.125 0  1.25 0.125 0  1.28125 0.125 0  1.3125 0.125 0  1.34375 0.125 0  1.375 0.125 0  1.40625 0.125 0  1.4375 0.125 0  1.46875 0.125 0  1.5 0.125 0  0 0.15625 0  0.03125 0.15625 0  0.0625 0.15625 0  0.09375 0.15625 0  0.125 0.15625 0  0.15625 0.15625 0  0.1875 0.15625 0  0.21875 0.15625 0  0.25 0.15625 0  0.28125 0.15625 0  0.3125 0.15625 0  0.34375 0.15625 0  0.375 0.15625 0  0.40625 0.15625 0  0.4375 0.15625 0  0.46875 0.15625 0  0.5 0.15625 0  0.53125 0.15625 0  0.5625 0.15625 0  0.59375 0.15625 0  0.625 0.15625 0  0.65625 0.15625 0  0.6875 0.15625 0  0.71875 0.15625 0  0.75 0.15625 0  0.78125 0.15625 0  0.8125 0.15625 0  0.84375 0.15625 0  0.875 0.15625 0  0.90625 0.15625 0  0.9375 0.15625 0  0.96875 0.15625 0  1 0.15625 0  1.03125 0.15625 0  1.0625 0.15625 0  1.09375 0.15625 0  1.125 0.15625 0  1.15625 0.15625 0  1.1875 0.15625 0  1.21875 0.15625 0  1.25 0.15625 0  1.28125 0.15625 0  1.3125 0.15625 0  1.34375 0.15625 0  1.375 0.15625 0  1.40625 0.15625 0  1.4375 0.15625 0  1.46875 0.15625 0  1.5 0.15625 0  0 0.1875 0  0.03125 0.1875 0  0.0625 0.1875 0  0.09375 0.1875 0  0.125 0.1875 0  0.15625 0.1875 0  0.1875 0.1875 0  0.21875 0.1875 0  0.25 0.1875 0  0.28125 0.1875 0  0.3125 0.1875 0  0.34375 0.1875 0  0.375 0.1875 0  0.40625 0.1875 0  0.4375 0.1875 0  0.46875 0.1875 0  0.5 0.1875 0  0.53125 0.1875 0  0.5625 0.1875 0  0.59375 0.1875 0  0.625 0.1875 0  0.65625 0.1875 0  0.6875 0.1875 0  0.71875 0.1875 0  0.75 0.1875 0  0.78125 0.1875 0  0.8125 0.1875 0  0.84375 0.1875 0  0.875 0.1875 0  0.90625 0.1875 0  0.9375 0.1875 0  0.96875 0.1875 0  1 0.1875 0  1.03125 0.1875 0  1.0625 0.1875 0  1.09375 0.1875 0  1.125 0.1875 0  1.15625 0.1875 0  1.1875 0.1875 0  1.21875 0.1875 0  1.25 0.1875 0  1.28125 0.1875 0  1.3125 0.1875 0  1.34375 0.1875 0  1.375 0.1875 0  1.40625 0.1875 0  1.4375 0.1875 0  1.46875 0.1875 0  1.5 0.1875 0  0 0.21875 0  0.03125 0.21875 0  0.0625 0.21875 0  0.09375 0.21875 0  0.125 0.21875 0  0.15625 0.21875 0  0.1875 0.21875 0  0.21875 0.21875 0  0.25 0.21875 0  0.28125 0.21875 0  0.3125 0.21875 0  0.34375 0.21875 0  0.375 0.21875 0  0.40625 0.21875 0  0.4375 0.21875 0  0.46875 0.21875 0  0.5 0.21875 0  0.53125 0.21875 0  0.5625 0.21875 0  0.59375 0.21875 0  0.625 0.21875 0  0.65625 0.21875 0  0.6875 0.21875 0  0.71875 0.21875 0  0.75 0.21875 0  0.78125 0.21875 0  0.8125 0.21875 0  0.84375 0.21875 0  0.875 0.21875 0  0.90625 0.21875 0  0.9375 0.21875 0  0.96875 0.21875 0  1 0.21875 0  1.03125 0.21875 0  1.0625 0.21875 0  1.09375 0.21875 0  1.125 0.21875 0  1.15625 0.21875 0  1.1875 0.21875 0  1.21875 0.21875 0  1.25 0.21875 0  1.28125 0.21875 0  1.3125 0.21875 0  1.34375 0.21875 0  1.375 0.21875 0  1.40625 0.21875 0  1.4375 0.21875 0  1.46875 0.21875 0  1.5 0.21875 0  0 0.25 0  0.03125 0.25 0  0.0625 0.25 0  0.09375 0.25 0  0.125 0.25 0  0.15625 0.25 0  0.1875 0.25 0  0.21875 0.25 0  0.25 0.25 0  0.28125 0.25 0  0.3125 0.25 0  0.34375 0.25 0  0.375 0.25 0  0.40625 0.25 0  0.4375 0.25 0  0.46875 0.25 0  0.5 0.25 0  0.53125 0.25 0  0.5625 0.25 0  0.59375 0.25 0  0.625 0.25 0  0.65625 0.25 0  0.6875 0.25 0  0.71875 0.25 0  0.75 0.25 0  0.78125 0.25 0  0.8125 0.25 0  0.84375 0.25 0  0.875 0.25 0  0.90625 0.25 0  0.9375 0.25 0  0.96875 0.25 0  1 0.25 0  1.03125 0.25 0  1.0625 0.25 0  1.09375 0.25 0  1.125 0.25 0  1.15625 0.25 0  1.1875 0.25 0  1.21875 0.25 0  1.25 0.25 0  1.28125 0.25 0  1.3125 0.25 0  1.34375 0.25 0  1.375 0.25 0  1.40625 0.25 0  1.4375 0.25 0  1.46875 0.25 0  1.5 0.25 0  0 0.28125 0  0.03125 0.28125 0  0.0625 0.28125 0  0.09375 0.28125 0  0.125 0.28125 0  0.15625 0.28125 0  0.1875 0.28125 0  0.21875 0.28125 0  0.25 0.28125 0  0.28125 0.28125 0  0.3125 0.28125 0  0.34375 0.28125 0  0.375 0.28125 0  0.40625 0.28125 0  0.4375 0.28125 0  0.46875 0.28125 0  0.5 0.28125 0  0.53125 0.28125 0  0.5625 0.28125 0  0.59375 0.28125 0  0.625 0.28125 0  0.65625 0.28125 0  0.6875 0.28125 0  0.71875 0.28125 0  0.75 0.28125 0  0.78125 0.28125 0  0.8125 0.28125 0  0.84375 0.28125 0  0.875 0.28125 0  0.90625 0.28125 0  0.9375 0.28125 0  0.96875 0.28125 0  1 0.28125 0  1.03125 0.28125 0  1.0625 0.28125 0  1.09375 0.28125 0  1.125 0.28125 0  1.15625 0.28125 0  1.1875 0.28125 0  1.21875 0.28125 0  1.25 0.28125 0  1.28125 0.28125 0  1.3125 0.28125 0  1.34375 0.28125 0  1.375 0.28125 0  1.40625 0.28125 0  1.4375 0.28125 0  1.46875 0.28125 0  1.5 0.28125 0  0 0.3125 0  0.03125 0.3125 0  0.0625 0.3125 0  0.09375 0.3125 0  0.125 0.3125 0  0.15625 0.3125 0  0.1875 0.3125 0  0.21875 0.3125 0  0.25 0.3125 0  0.28125 0.3125 0  0.3125 0.3125 0  0.34375 0.3125 0  0.375 0.3125 0  0.40625 0.3125 0  0.4375 0.3125 0  0.46875 0.3125 0  0.5 0.3125 0  0.53125 0.3125 0  0.5625 0.3125 0  0.59375 0.3125 0  0.625 0.3125 0  0.65625 0.3125 0  0.6875 0.3125 0  0.71875 0.3125 0  0.75 0.3125 0  0.78125 0.3125 0  0.8125 0.3125 0  0.84375 0.3125 0  0.875 0.3125 0  0.90625 0.3125 0  0.9375 0.3125 0  0.96875 0.3125 0  1 0.3125 0  1.03125 0.3125 0  1.0625 0.3125 0  1.09375 0.3125 0  1.125 0.3125 0  1.15625 0.3125 0  1.1875 0.3125 0  1.21875 0.3125 0  1.25 0.3125 0  1.28125 0.3125 0  1.3125 0.3125 0  1.34375 0.3125 0  1.375 0.3125 0  1.40625 0.3125 0  1.4375 0.3125 0  1.46875 0.3125 0  1.5 0.3125 0  0 0.34375 0  0.03125 0.34375 0  0.0625 0.34375 0  0.09375 0.34375 0  0.125 0.34375 0  0.15625 0.34375 0  0.1875 0.34375 0  0.21875 0.34375 0  0.25 0.34375 0  0.28125 0.34375 0  0.3125 0.34375 0  0.34375 0.34375 0  0.375 0.34375 0  0.40625 0.34375 0  0.4375 0.34375 0  0.46875 0.34375 0  0.5 0.34375 0  0.53125 0.34375 0  0.5625 0.34375 0  0.59375 0.34375 0  0.625 0.34375 0  0.65625 0.34375 0  0.6875 0.34375 0  0.71875 0.34375 0  0.75 0.34375 0  0.78125 0.34375 0  0.8125 0.34375 0  0.84375 0.34375 0  0.875 0.34375 0  0.90625 0.34375 0  0.9375 0.34375 0  0.96875 0.34375 0  1 0.34375 0  1.03125 0.34375 0  1.0625 0.34375 0  1.09375 0.34375 0  1.125 0.34375 0  1.15625 0.34375 0  1.1875 0.34375 0  1.21875 0.34375 0  1.25 0.34375 0  1.28125 0.34375 0  1.3125 0.34375 0  1.34375 0.34375 0  1.375 0.34375 0  1
[...]
<PointData  Scalars="f_65"> 
<DataArray  type="Float64"  Name="f_65"  format="ascii">7.3054983460911793e-01  3.0606237003043474e-01  3.0144340126966457e-01  3.3440655991448032e-01  3.4748484071758395e-01  3.6229666460947663e-01  3.7436644106067113e-01  3.8452951888390802e-01  3.9319686683860999e-01  4.0085731595907026e-01  4.0793202449538962e-01  4.1472136104514273e-01  4.2141668530681270e-01  4.2812829292988713e-01  4.3491684818965809e-01  4.4181640896917473e-01  4.4884846087698549e-01  4.5602903915999221e-01  4.6337162232011747e-01  4.7088778317344843e-01  4.7858680216734090e-01  4.8647492719293456e-01  4.9455468284187759e-01  5.0282448291075643e-01  5.1127869101443002e-01  5.1990816249471117e-01  5.2870118671648536e-01  5.3764465422047703e-01  5.4672523062177047e-01  5.5593032324544955e-01  5.6524870858046861e-01  5.7467068210194627e-01  5.8418778897168533e-01  5.9379150699300531e-01  6.0347127638690767e-01  6.1320720200592049e-01  6.2296267376158232e-01  6.3264944534311263e-01  6.4212481505623986e-01  6.5104966890362004e-01  6.5909730517870879e-01  6.6523368834217467e-01  6.6967180148708816e-01  6.6885443677575662e-01  6.6932633249123630e-01  6.4193882116445655e-01  6.7391415618641592e-01  7.5707015607490824e-01  3.6456442210193657e-01  1.5802858156722535e+00  3.0216113084458712e-01  5.2021917591659705e-01  4.8849050189313231e-01  5.0574027457295534e-01  5.1553915304104747e-01  5.2151001953521048e-01  5.2544279387331538e-01  5.2740800224273088e-01  5.2805708959004327e-01  5.2787627988628327e-01  5.2722383373274651e-01  5.2632344214787019e-01  5.2530031319219994e-01  5.2421840964018040e-01  5.2310843593167866e-01  5.2198485614801349e-01  5.2085453660632253e-01  5.1972046104322922e-01  5.1858297346603477e-01  5.1744000825925962e-01  5.1628707221012327e-01  5.1511736153714771e-01  5.1392218824975577e-01  5.1269174860508659e-01  5.1141614891322695e-01  5.1008651405615235e-01  5.0869596274714424e-01  5.0724025858097621e-01  5.0571801784342463e-01  5.0413046399587702e-01  5.0248073840058216e-01  5.0077284255798893e-01  4.9900975381050533e-01  4.9719050878471582e-01  4.9530276948016411e-01  4.9331206772299629e-01  4.9113120227679463e-01  4.8860007446150971e-01  4.8539064703349816e-01  4.8109897736216772e-01  4.7489402170870892e-01  4.6659010580830051e-01  4.5436982859436281e-01  4.4096242057697194e-01  4.1367371202476882e-01  4.2336877949027019e-01  4.7951826755471350e-01  1.5587152876594890e-01  1.6472095506536428e+00  1.5734951262481101e-01  5.4730367274513014e-01  4.3084374142643056e-01  4.7769501781607987e-01  4.8178965656118600e-01  4.8917727940662176e-01  4.9415132603736056e-01  4.9729760123568489e-01  4.9919483080120541e-01  5.0028145249361200e-01  5.0091351246035321e-01  5.0131364787981747e-01  5.0160846176752483e-01  5.0186193105841692e-01  5.0210394369703981e-01  5.0234779788490758e-01  5.0259945551734075e-01  5.0286172616566405e-01  5.0313586901815077e-01  5.0342207436709252e-01  5.0371954569095512e-01  5.0402650674326510e-01  5.0434027130991377e-01  5.0465742894424648e-01  5.0497415208601515e-01  5.0528659042315793e-01  5.0559128245344975e-01  5.0588549712611108e-01  5.0616742161219319e-01  5.0643615313204238e-01  5.0669141994258193e-01  5.0693299251847701e-01  5.0715917582259562e-01  5.0736403776181926e-01  5.0752967586005115e-01  5.0761490901938511e-01  5.0752381244460110e-01  5.0708743491474551e-01  5.0597194440454130e-01  5.0379146314210499e-01  4.9976783635105582e-01  4.9389998769165516e-01  4.8458326557185666e-01  4.7510499915250859e-01  4.5395045087419794e-01  4.7690683991319666e-01  5.3621860419557632e-01  2.2537338359210374e-01  1.6562024175856787e+00  1.5070172334541521e-01  5.7484810722746904e-01  4.1733484763498030e-01  4.8928006415492870e-01  4.8175114009831133e-01  4.9171843588145014e-01  4.9601760274623197e-01  4.9907494039748895e-01  5.0078277168184959e-01  5.0166332981338957e-01  5.0207230283114523e-01  5.0223785525310594e-01  5.0229041887351700e-01  5.0229547611439440e-01  5.0228330378620467e-01  5.0226713084827501e-01  5.0225292367347862e-01  5.0224375540095767e-01  5.0224144071108701e-01  5.0224693462838310e-01  5.0226026082087649e-01  5.0228033079539969e-01  5.0230484770148331e-01  5.0233041257403588e-01  5.0235288449474136e-01  5.0236795627677444e-01  5.0237180906369194e-01  5.0236165754202478e-01  5.0233602329697880e-01  5.0229467951676809e-01  5.0223823732086537e-01  5.0216739766349971e-01  5.0208131116765753e-01  5.0197471124503623e-01  5.0183019106783400e-01  5.0160708923847463e-01  5.0121107448463120e-01  5.0047809418623423e-01  4.9908880692155577e-01  4.9668832520479494e-01  4.9256400314236387e-01  4.8680286027365716e-01  4.7795859778733291e-01  4.6928010696431610e-01  4.4899417801581165e-01  4.7190481682874857e-01  5.3049072247701035e-01  2.1359890711557233e-01  1.6611868987945384e+00  1.5150461776143043e-01  5.7728169298969079e-01  4.1228060698693575e-01  4.9246512570233963e-01  4.7721674874440695e-01  4.9057953193021281e-01  4.9369604788534127e-01  4.9698690639410270e-01  4.9865600505894059e-01  4.9956960047526372e-01  5.0001029206612346e-01  5.0021066181368279e-01  5.0029803621570390e-01  5.0033686497606100e-01  5.0035675187445994e-01  5.0037076212725484e-01  5.0038514327930417e-01  5.0040365525320685e-01  5.0042913635668473e-01  5.0046376442488905e-01  5.0050877768787749e-01  5.0056402671132083e-01  5.0062763023625767e-01  5.0069595472674389e-01  5.0076405804079327e-01  5.0082656401604586e-01  5.0087871356138758e-01  5.0091721667149736e-01  5.0094061433397730e-01  5.0094910125084346e-01  5.0094388871275852e-01  5.0092625243570155e-01  5.0089577984665967e-01  5.0084750042958914e-01  5.0076428061727296e-01  5.0060602481157623e-01  5.0027998734594825e-01  4.9962635281400558e-01  4.9833540659684283e-01  4.9607191979070203e-01  4.9215431962317863e-01  4.8671692683979922e-01  4.7833755852207765e-01  4.7031173599700565e-01  4.5077283277686664e-01  4.7446897906930546e-01  5.3412214882191711e-01  2.1637431696831341e-01  1.6649566457098075e+00  1.5339425510486701e-01  5.7912218866949317e-01  4.1299930487756065e-01  4.9387513099421365e-01  4.7636920468165311e-01  4.9149517951601090e-01  4.9341249440486595e-01  4.9700148820458201e-01  4.9850822919220666e-01  4.9940042391122458e-01  4.9979630586720708e-01  4.9995837459150627e-01  5.0000697015963080e-01  5.0000673691776187e-01  4.9998709790332768e-01  4.9996162532590666e-01  4.9993752877841835e-01  4.9992001926214591e-01  4.9991375205499905e-01  4.9992285133757558e-01  4.9995021629037489e-01  4.9999653388774556e-01  5.0005947556582275e-01  5.0013351712345100e-01  5.0021073125238824e-01  5.0028250089698034e-01  5.0034155369559641e-01  5.0038345470593970e-01  5.0040701325830450e-01  5.0041367574492890e-01  5.0040630051625690e-01  5.0038772840192081e-01  5.0035877883718349e-01  5.0031534496728858e-01  5.0024093086747112e-01  5.0009616756103314e-01  4.9978973165074525e-01  4.9916503623676467e-01  4.9791907847612199e-01  4.9572929828799939e-01  4.9193284120468533e-01  4.8668896649664495e-01  4.7859021030801330e-01  4.7093412134551355e-01  4.5180394143426034e-01  4.7589069029505410e-01  5.3650178259377379e-01  2.1799746833208797e-01  1.6678866852269405e+00  1.5466451156647543e-01  5.8003847780536100e-01  4.1338611611551512e-01  4.9415870843817317e-01  4.7632516919037743e-01  4.9177264685715971e-01  4.9312097589554615e-01  4.9697937987667146e-01  4.9834497861958627e-01  4.9926363409414098e-01  4.9963921645579040e-01  4.9979227137282695e-01  4.9982745250604210e-01  4.9981160542369224e-01  4.9977379740285566e-01  4.9972832537250983e-01  4.9968373539721389e-01  4.9964733931278105e-01  4.9962659772266788e-01  4.9962882577798878e-01  4.9965972840803963e-01  4.9972136633272807e-01  4.9981041675866522e-01  4.9991761234890275e-01  5.0002929032672871e-01  5.0013095478084735e-01  5.0021133363979287e-01  5.0026488537127978e-01  5.0029185021493050e-01  5.0029647556649048e-01  5.0028459968671080e-01  5.0026146862615262e-01  5.0022947620489977e-01  5.0018534203973797e-01  5.0011290583626522e-01  4.9997297586552636e-01  4.9967471147949188e-01  4.9906300277770121e-01  4.9783836387042707e-01  4.9568525824054827e-01  4.9195160683837741e-01  4.8681220744426912e-01  4.7887028309408580e-01  4.7143741449881743e-01  4.5257700130585837e-01  4.7697843632548925e-01  5.3838031070162939e-01  2.1899258957425319e-01  1.6701482014094837e+00  1.5552373187716423e-01  5.8071003331927251e-01  4.1375682195591451e-01  4.9447293556862348e-01  4.7649721996458677e-01  4.9189745160530313e-01  4.9311233087368733e-01  4.9707700853276421e-01  4.9834789291107717e-01  4.9929578751021125e-01  4.9964954517056998e-01  4.9979514521978280e-01  4.9981449976234693e-01  4.9977962484331007e-01  4.9971829863179934e-01  4.9964566415959066e-01  4.9957189016036208e-01  4.9950725040525096e-01  4.9946380404724761e-01  4.9945448493448780e-01  4.9949024640040346e-01  4.9957596864384174e-01  4.9970664370114298e-01  4.9986576439157054e-01  5.0002860463504040e-01  5.0017010082294955e-01  5.0027315553575624e-01  5.0033240088144737e-01  5.0035247559538443e-01  5.0034341196868326e-01  5.0031606696589581e-01  5.0027902573249283e-01  5.0023636640788260e-01  5.0018528980901988e-01  5.0010944049874695e-01  4.9996919372190185e-01  4.9967345781730271e-01  4.9906750416498874e-01  4.9785361102509884e-01  4.9572037166689020e-01  4.9202283371010108e-01  4.8694692377548804e-01  4.7910664387631713e-01  4.7182810682628612e-01  4.5316975647932789e-01  4.7783443726442254e-01  5.3996480984326389e-01  2.1995536188539103e-01  1.6718912102860752e+00  1.5606049787175622e-01  5.8117833299976940e-01  4.1397408595291790e-01  4.9465202729786389e-01  4.7656416339061120e-01  4.9194334231946851e-01  4.9313679987595699e-01  4.9711667978240770e-01  4.9835586281993755e-01  4.9932649464812823e-01  4.9966729457312897e-01  4.9981117243644158e-01  4.9981780976738505e-01  4.9976557344063705e-01  4.9967913404515107e-01  4.9957444030341808e-01  4.9946290703032242e-01  4.9935900631398183e-01  4.9928239979145755e-01  4.9925580762646560e-01  4.9930036152512774e-01  4.9942709085835640e-01  4.9962829877531423e-01  4.9987295478813376e-01  5.0011431364919001e-01  5.0030847340109375e-01  5.0043147932118059e-01  5.0048308042058032e-01  5.0047894777068735e-01  5.0043990583938680e-01  5.0038421909702968e-01  5.0032413695422884e-01  5.0026467369305283e-01  5.0020245703711352e-01  5.0011998098938326e-01  4.9997644158375110e-01  4.9967989913149874e-01  4.9907534498456396e-01  4.9786588944855048e-01  4.9574262052984214e-01  4.9206570029244340e-01  4.8702926460636181e-01  4.7925758644401284e-01  4.7209008902727734e-01  4.5358659781140009e-01  4.7846383680969523e-01  5.4120686262599427e-01  2.2069741694531336e-01  1.6732538516555147e+00  1.5639325165813517e-01  5.8153006614611524e-01  4.1409981181218608e-01  4.9477068646014438e-01  4.7660219963216888e-01  4.9198356779968511e-01  4.9316041144273481e-01  4.9714285634424621e-01  4.9838176214594337e-01  4.9936433560143906e-01  4.9970071110295855e-01  4.9984466292160984e-01  4.9984034851277859e-01  4.9977029115195259e-01  4.9965414198210772e-01  4.9950798931894635e-01  4.9934252253264944e-01  4.9917889133482019e-01  4.9904788916338638e-01  4.9898907964410866e-01  4.9904412783822227e-01  4.9923740524952570e-01  4.9955732421747595e-01  4.9994209601819772e-01  5.0029942106122938e-01  5.0055299979982426e-01  5.0067658135843662e-01  5.0068935107396939e-01  5.0063102990461195e-01  5.0053992417932713e-01  5.0044272875560791e-01  5.0035347217539505e-01  5.0027551494256828e-01  5.0020274785350438e-01  5.0011507742327443e-01  4.9996970577242933e-01  4.9967342622645178e-01  4.9907064980143090e-01  4.9786492369929308e-01  4.9574897654259537e-01  4.9208690540881356e-01  4.8707894853022909e-01  4.7935874254288985e-01  4.7227667089047087e-01  4.5389629938512221e-01  4.7894856929870544e-01  5.4221374018220059e-01  2.2131476692089383e-01  1.6743322382293924e+00  1.5659804241876341e-01  5.8181074114494979e-01  4.1417639958397562e-01  4.9486451304975015e-01  4.7663111673736042e-01  4.9202118368129916e-01  4.9318450673975406e-01  4.9717654167878567e-01  4.9842253106767348e-01  4.9941422251512274e-01  4.9975451643793450e-01  4.9990164440666929e-01  4.9989107970530111e-01  4.9980523964098106e-01  4.9965714787344784e-01  4.9946040737439745e-01  4.9922079257431434e-01  4.9897025457865768e-01  4.9874981406665658e-01  4.9863087805685591e-01  4.9869492023663586e-01  4.9899552912718453e-01  4.9951930833701175e-01  5.0013410087253629e-01  5.0065060512468695e-01  5.0094315929433741e-01  5.0100862317760386e-01  5.0092061482054895e-01  5.0076370741941123e-01  5.0059763908771215e-01  5.0045257740169791e-01  5.0033728851025594e-01  5.0024795392286836e-01  5.0017240636145310e-01  5.0008641339316073e-01  4.9994470302937605e-01  4.9965283419998580e-01  4.9905479051478907e-01  4.9785460074499133e-01  4.9574629241288576e-01  4.9209721284703306e-01  4.8711219953267193e-01  4.7943320462591438e-01  4.7241932494206351e-01  4.5413772678794179e-01  4.7933301386047833e-01  5.4303796059747722e-01  2.2182809478931415e-01  1.6751866800916115e+00  1.5672078611623794e-01  5.8204174244502804e-01  4.1422555670569372e-01  4.9494554826645504e-01  4.7665711529527066e-01  4.9206073461758143e-01  4.9321572738928171e-01  4.9722142882902259e-01  4.9847694793678593e-01  4.9948191595722008e-01  4.9983436542756543e-01  4.9999211724744774e-01  4.9998561326587321e-01  4.9989343330370256e-01  4.9972032294578078e-01  4.9947175490982554e-01  4.9914306288816318e-01  4.9877772320634045e-01  4.9841237204151340e-01  4.9818682231983619e-01  4.9824171494372399e-01  4.9870989342429911e-01  4.9959295714574248e-01  5.0058104322517294e-01  5.0127859395457008e-01  5.0150669000992376e-01  5.0137513088723695e-01  5.0108328744531305e-01  5.0077933671780173e-01  5.0053231236609019e-01  5.0035567067234554e-01  5.0023795284028993e-01  5.0015977400334388e-01  5.0009965161012127e-01  5.0002877199432194e-01  4.9990014012398892e-01  4.9961910436411860e-01  4.9903008688783507e-01  4.9783813775528990e-01  4.9573867589738080e-01  4.9210195581250182e-01  4.8713640624221555e-01  4.7949125382811592e-01  4.7253247456017494e-01  4.5432990129510353e-01  4.7964122653208929e-01  5.4371167111035446e-01  2.2225183918392105e-01  1.6758534889195504e+00  1.5678907770701092e-01  5.8223119325777783e-01  4.1425723122601144e-01  4.9501650445035350e-01  4.7668172000173054e-01  4.9210219131990468e-01  4.9325272420119387e-01  4.9727440189952576e-01  4.9854309192075602e-01  4.9956769725924410e-01  4.9994148961870427e-01  5.0012259235345413e-01  5.0013820093125416e-01  5.0006189221731201e-01  4.9988891001212366e-01  4.9961002695364137e-01  4.9920422633677514e-01  4.9870859926520683e-01  4.9812470258440672e-01  4.9772278126543884e-01  4.9768059754840221e-01  4.9841336659823676e-01  4.9995229137884883e-01  5.0152179081951420e-01  5.0232038682527858e-01  5.0218353176688968e-01  5.0158659312243670e-01  5.0096207622902522e-01  5.0050103374475297e-01  5.0022101216814852e-01  5.0007657680857454e-01  5.0001361860063909e-01  4.9999025995089491e-01  4.9997587252531150e-01  4.9993991161325574e-01  4.9983680600526031e-01  4.9957424529875877e-01  4.9899886256411374e-01  4.9781778059001058e-01  4.9572826070520382e-01  4.9210334504384190e-01  4.8715441345935839e-01  4.7953690484919792e-01  4.7262223999428066e-01  4.5448179176548303e-01  4.7988561067794899e-01  5.4425186007630533e-01  2.2259343092021172e-01  1.6763553498520447e+00  1.5682105689698470e-01  5.8238138858802913e-01  4.1427598520013947e-01  4.9507615472008643e-01  4.7670337108604155e-01  4.9214186931950787e-01  4.9329077444985175e-01  4.9732982604818016e-01  4.9861493438201437e-01  4.9966459681498049e-01  5.0006892454445806e-01  5.0028868342980182e-01  5.0035053518100325e-01  5.0032604798552849e-01  5.0020397732348443e-01  4.9996073429169080e-01  4.9955512049424594e-01  4.9897916125916053e-01  4.9817405819892291e-01  4.9753890135952611e-01  4.9713659189991916e-01  4.9824397633224721e-01  5.0086912883796320e-01  5.0336891680027529e-01  5.0395362938553745e-01  5.0269480104493935e-01  5.0121439933576795e-01  5.0020531800481338e-01  4.9970241643452956e-01  4.9954164379250987e-01  4.9955853082517171e-01  4.9964371677690000e-01  4.9973616433302859e-01  4.9980486868075247e-01  4.9982563063550067e-01  4.9976030118364234e-01  4.9952286670945284e-01  4.9896457909259795e-01  4.9779593790223348e-01  4.9571664073384136e-01  4.9210244667368402e-01  4.8716725188412036e-01  4.7957153726639323e-01  4.7269102323812123e-01  4.5459752678413068e-01  4.8007249504404659e-01  5.4466675510180718e-01  2.2285592222365486e-01  1.6767071674245959e+00  1.5682960012243247e-01  5.8249249719190233e-01  4.1428450613655954e-01  4.9512249568057520e-01  4.7671999412983784e-01  4.9217547823358232e-01  4.9332432777558682e-01  4.9737996041078508e-01  4.9868189067468910e-01  4.9975805819443986e-01  5.0019744970266511e-01  5.0046590835022486e-01  5.0059377212857203e-01  5.0065765256634598e-01  5.0065057298662974e-01  5.0054932284079867e-01  5.0030246215993279e-01  4.9983916842643900e-01  4.9901580165432941e-01  4.9804041845049718e-01  4.9645612394723099e-01  4.9763854658569284e-01  5.0265620255416044e-01  5.0705564079595378e-01  5.0655407984203926e-01  5.0272493868074586e-01  4.9963749811250402e-01  4.9846644721521544e-01  4.9826745261031719e-01  4.9849044479271626e-01  4.9883963914387980e-01  4.9917214679296296e-01  4.9943450173181697e-01  4.9961417893061061e-01  4.9970515890656159e-01  4.9968359926571498e-01  4.9947353512524501e-01  4.9893278829028420e-01  4.9777611294535129e-01  4.9570596685973861e-01  4.9210055763244975e-01  4.8717588058003475e-01  4.7959609476694570e-01  4.7274023998705628e-01  4.5467955604314453e-01  4.8020565490935768e-01  5.4496047344608300e-01  2.2304084112201344e-01  1.6769186918877568e+00  1.5682367767155908e-01  5.8256388037102746e-01  4.1428451610321154e-01  4.9515346891133249e-01  4.7672950242231632e-01  4.9219871667085113e-01  4.9334741982637309e-01  4.9741566409808130e-01  4.9873031171012511e-01  4.9982741730886610e-01  5.0029580513049188e-01  5.0060701528910867e-01  5.0079744964202488e-01  5.0095415804675214e-01  5.0108596881639988e-01  5.0119392554641551e-01  5.0126256920020362e-01  5.0126531167641897e-01  5.0115584268755753e-01  5.0096310459394111e-01  4.9946128438905768e-01  4.9934298740174854e-01  5.0656102896621114e-01  5.1709534984648320e-01  5.1487522515877471e-01  4.9964580873515979e-01  4.9711026445558770e-01  4.9595662026331627e-01  4.9651049831598948e-01  4.9735505219727544e-01  4.9813257469158156e-01  4.9874016881167943e-01  4.9917392962857393e-01  4.9945758189302242e-01  4.9961057954500565e-01  4.9962573151198258e-01  4.9943755448985167e-01  4.9891022427365522e-01  4.9776230430778856e-01  4.9569859603070704e-01  4.9209905550140709e-01  4.8718121307227308e-01  4.7961131136468582e-01  4.7277078771770858e-01  4.5472936180333762e-01  4.8028728614093474e-01  5.4513480486738175e-01  2.2314874106620899e-01  1.6769955605685292e+00  1.5680866004534930e-01  5.8259469733185953e-01  4.1427705639801143e-01  4.9516741628434818e-01  4.7673031348474404e-01  4.9220822954774879e-01  4.9335525767652144e-01  4.9742924464064270e-01  4.9874815637682529e-01  4.9985333266412207e-01  5.0033259834470489e-01  5.0066038365427112e-01  5.0087574640506616e-01  5.0107120953267748e-01  5.0126502100611403e-01  5.0147645125321139e-01  5.0172934689564774e-01  5.0208780688703858e-01  5.0271505258911853e-01  5.0392145050682735e-01  5.0492906694575812e-01  5.0263468964365710e-01  5.2756916278864530e-01  5.2395327235746503e-01  5.2591187758644364e-01  5.2027207622555893e-01  4.9112978712718952e-01  4.9427195807820407e-01  4.9545981968109942e-01  4.9677125267226602e-01  4.9780087263937123e-01  4.9855147408596345e-01  4.9906654619730972e-01  4.9939634045580505e-01  4.9957530903506570e-01  4.9960500904316285e-01  4.9942506618221455e-01  4.9890257811355770e-01  4.9775773662937300e-01  4.9569636441475395e-01  4.9209899052614819e-01  4.8718391030307201e-01  4.7961767275822226e-01  4.7278317672865794e-01  4.5474776246378640e