<?xml version="1.0"?>
<VTKFile type="UnstructuredGrid"  version="0.1"  >
<UnstructuredGrid>
<Piece  NumberOfPoints="1617" NumberOfCells="3072">
<Points>
<DataArray  type="Float64"  NumberOfComponents="3"  format="ascii">0 0 0  0.03125 0 0  0.0625 0 0  0.09375 0 0  0.125 0 0  0.15625 0 0  0.1875 0 0  0.21875 0 0  0.25 0 0  0.28125 0 0  0.3125 0 0  0.34375 0 0  0.375 0 0  0.40625 0 0  0.4375 0 0  0.46875 0 0  0.5 0 0  0.53125 0 0  0.5625 0 0  0.59375 0 0  0.625 0 0  0.65625 0 0  0.6875 0 0  0.71875 0 0  0.75 0 0  0.78125 0 0  0.8125 0 0  0.84375 0 0  0.875 0 0  0.90625 0 0  0.9375 0 0  0.96875 0 0  1 0 0  1.03125 0 0  1.0625 0 0  1.09375 0 0  1.125 0 0  1.15625 0 0  1.1875 0 0  1.21875 0 0  1.25 0 0  1.28125 0 0  1.3125 0 0  1.34375 0 0  1.375 0 0  1.40625 0 0  1.4375 0 0  1.46875 0 0  1.5 0 0  0 0.03125 0  0.03125 0.03125 0  0.0625 0.03125 0  0.09375 0.03125 0  0.125 0.03125 0  0.15625 0.03125 0  0.1875 0.03125 0  0.21875 0.03125 0  0.25 0.03125 0  0.28125 0.03125 0  0.3125 0.03125 0  0.34375 0.03125 0  0.375 0.03125 0  0.40625 0.03125 0  0.4375 0.03125 0  0.46875 0.03125 0  0.5 0.03125 0  0.53125 0.03125 0  0.5625 0.03125 0  0.59375 0.03125 0  0.625 0.03125 0  0.65625 0.03125 0  0.6875 0.03125 0  0.71875 0.03125 0  0.75 0.03125 0  0.78125 0.03125 0  0.8125 0.03125 0  0.84375 0.03125 0  0.875 0.03125 0  0.90625 0.03125 0  0.9375 0.03125 0  0.96875 0.03125 0  1 0.03125 0  1.03125 0.03125 0  1.0625 0.03125 0  1.09375 0.03125 0  1.125 0.03125 0  1.15625 0.03125 0  1.1875 0.03125 0  1.21875 0.03125 0  1.25 0.03125 0  1.28125 0.03125 0  1.3125 0.03125 0  1.34375 0.03125 0  1.375 0.03125 0  1.40625 0.03125 0  1.4375 0.03125 0  1.46875 0.03125 0  1.5 0.03125 0  0 0.0625 0  0.03125 0.0625 0  0.0625 0.0625 0  0.09375 0.0625 0  0.125 0.0625 0  0.15625 0.0625 0  0.1875 0.0625 0  0.21875 0.0625 0  0.25 0.0625 0  0.28125 0.0625 0  0.3125 0.0625 0  0.34375 0.0625 0  0.375 0.0625 0  0.40625 0.0625 0  0.4375 0.0625 0  0.46875 0.0625 0  0.5 0.0625 0  0.53125 0.0625 0  0.5625 0.0625 0  0.59375 0.0625 0  0.625 0.0625 0  0.65625 0.0625 0  0.6875 0.0625 0  0.71875 0.0625 0  0.75 0.0625 0  0.78125 0.0625 0  0.8125 0.0625 0  0.84375 0.0625 0  0.875 0.0625 0  0.90625 0.0625 0  0.9375 0.0625 0  0.96875 0.0625 0  1 0.0625 0  1.03125 0.0625 0  1.0625 0.0625 0  1.09375 0.0625 0  1.125 0.0625 0  1.15625 0.0625 0  1.1875 0.0625 0  1.21875 0.0625 0  1.25 0.0625 0  1.28125 0.0625 0  1.3125 0.0625 0  1.34375 0.0625 0  1.375 0.0625 0  1.40625 0.0625 0  1.4375 0.0625 0  1.46875 0.0625 0  1.5 0.0625 0  0 0.09375 0  0.03125 0.09375 0  0.0625 0.09375 0  0.09375 0.09375 0  0.125 0.09375 0  0.15625 0.09375 0  0.1875 0.09375 0  0.21875 0.09375 0  0.25 0.09375 0  0.28125 0.09375 0  0.3125 0.09375 0  0.34375 0.09375 0  0.375 0.09375 0  0.40625 0.09375 0  0.4375 0.09375 0  0.46875 0.09375 0  0.5 0.09375 0  0.53125 0.09375 0  0.5625 0.09375 0  0.59375 0.09375 0  0.625 0.09375 0  0.65625 0.09375 0  0.6875 0.09375 0  0.71875 0.09375 0  0.75 0.09375 0  0.78125 0.09375 0  0.8125 0.09375 0  0.84375 0.09375 0  0.875 0.09375 0  0.90625 0.09375 0  0.9375 0.09375 0  0.96875 0.09375 0  1 0.09375 0  1.03125 0.09375 0  1.0625 0.09375 0  1.09375 0.09375 0  1.125 0.09375 0  1.15625 0.09375 0  1.1875 0.09375 0  1.21875 0.09375 0  1.25 0.09375 0  1.28125 0.09375 0  1.3125 0.09375 0  1.34375 0.09375 0  1.375 0.09375 0  1.40625 0.09375 0  1.4375 0.09375 0  1.46875 0.09375 0  1.5 0.09375 0  0 0.125 0  0.03125 0.125 0  0.0625 0.125 0  0.09375 0.125 0  0.125 0.125 0  0.15625 0.125 0  0.1875 0.125 0  0.21875 0.125 0  0.25 0.125 0  0.28125 0.125 0  0.3125 0.125 0  0.34375 0.125 0  0.375 0.125 0  0.40625 0.125 0  0.4375 0.125 0  0.46875 0.125 0  0.5 0.125 0  0.53125 0.125 0  0.5625 0.125 0  0.59375 0.125 0  0.625 0.125 0  0.65625 0.125 0  0.6875 0.125 0  0.71875 0.125 0  0.75 0.125 0  0.78125 0.125 0  0.8125 0.125 0  0.84375 0.125 0  0.875 0.125 0  0.90625 0.125 0  0.9375 0.125 0  0.96875 0.125 0  1 0.125 0  1.03125 0.125 0  1.0625 0.125 0  1.09375 0.125 0  1.125 0.125 0  1.15625 0.125 0  1.1875 0.125 0  1.21875 0.125 0  1.25 0.125 0  1.28125 0.125 0  1.3125 0.125 0  1.34375 0.125 0  1.375 0.125 0  1.40625 0.125 0  1.4375 0.125 0  1.46875 0.125 0  1.5 0.125 0  0 0.15625 0  0.03125 0.15625 0  0.0625 0.15625 0  0.09375 0.15625 0  0.125 0.15625 0  0.15625 0.15625 0  0.1875 0.15625 0  0.21875 0.15625 0  0.25 0.15625 0  0.28125 0.15625 0  0.3125 0.15625 0  0.34375 0.15625 0  0.375 0.15625 0  0.40625 0.15625 0  0.4375 0.15625 0  0.46875 0.15625 0  0.5 0.15625 0  0.53125 0.15625 0  0.5625 0.15625 0  0.59375 0.15625 0  0.625 0.15625 0  0.65625 0.15625 0  0.6875 0.15625 0  0.71875 0.15625 0  0.75 0.15625 0  0.78125 0.15625 0  0.8125 0.15625 0  0.84375 0.15625 0  0.875 0.15625 0  0.90625 0.15625 0  0.9375 0.15625 0  0.96875 0.15625 0  1 0.15625 0  1.03125 0.15625 0  1.0625 0.15625 0  1.09375 0.15625 0  1.125 0.15625 0  1.15625 0.15625 0  1.1875 0.15625 0  1.21875 0.15625 0  1.25 0.15625 0  1.28125 0.15625 0  1.3125 0.15625 0  1.34375 0.15625 0  1.375 0.15625 0  1.40625 0.15625 0  1.4375 0.15625 0  1.46875 0.15625 0  1.5 0.15625 0  0 0.1875 0  0.03125 0.1875 0  0.0625 0.1875 0  0.09375 0.1875 0  0.125 0.1875 0  0.15625 0.1875 0  0.1875 0.1875 0  0.21875 0.1875 0  0.25 0.1875 0  0.28125 0.1875 0  0.3125 0.1875 0  0.34375 0.1875 0  0.375 0.1875 0  0.40625 0.1875 0  0.4375 0.1875 0  0.46875 0.1875 0  0.5 0.1875 0  0.53125 0.1875 0  0.5625 0.1875 0  0.59375 0.1875 0  0.625 0.1875 0  0.65625 0.1875 0  0.6875 0.1875 0  0.71875 0.1875 0  0.75 0.1875 0  0.78125 0.1875 0  0.8125 0.1875 0  0.84375 0.1875 0  0.875 0.1875 0  0.90625 0.1875 0  0.9375 0.1875 0  0.96875 0.1875 0  1 0.1875 0  1.03125 0.1875 0  1.0625 0.1875 0  1.09375 0.1875 0  1.125 0.1875 0  1.15625 0.1875 0  1.1875 0.1875 0  1.21875 0.1875 0  1.25 0.1875 0  1.28125 0.1875 0  1.3125 0.1875 0  1.34375 0.1875 0  1.375 0.1875 0  1.40625 0.1875 0  1.4375 0.1875 0  1.46875 0.1875 0  1.5 0.1875 0  0 0.21875 0  0.03125 0.21875 0  0.0625 0.21875 0  0.09375 0.21875 0  0.125 0.21875 0  0.15625 0.21875 0  0.1875 0.21875 0  0.21875 0.21875 0  0.25 0.21875 0  0.28125 0.21875 0  0.3125 0.21875 0  0.34375 0.21875 0  0.375 0.21875 0  0.40625 0.21875 0  0.4375 0.21875 0  0.46875 0.21875 0  0.5 0.21875 0  0.53125 0.21875 0  0.5625 0.21875 0  0.59375 0.21875 0  0.625 0.21875 0  0.65625 0.21875 0  0.6875 0.21875 0  0.71875 0.21875 0  0.75 0.21875 0  0.78125 0.21875 0  0.8125 0.21875 0  0.84375 0.21875 0  0.875 0.21875 0  0.90625 0.21875 0  0.9375 0.21875 0  0.96875 0.21875 0  1 0.21875 0  1.03125 0.21875 0  1.0625 0.21875 0  1.09375 0.21875 0  1.125 0.21875 0  1.15625 0.21875 0  1.1875 0.21875 0  1.21875 0.21875 0  1.25 0.21875 0  1.28125 0.21875 0  1.3125 0.21875 0  1.34375 0.21875 0  1.375 0.21875 0  1.40625 0.21875 0  1.4375 0.21875 0  1.46875 0.21875 0  1.5 0.21875 0  0 0.25 0  0.03125 0.25 0  0.0625 0.25 0  0.09375 0.25 0  0.125 0.25 0  0.15625 0.25 0  0.1875 0.25 0  0.21875 0.25 0  0.25 0.25 0  0.28125 0.25 0  0.3125 0.25 0  0.34375 0.25 0  0.375 0.25 0  0.40625 0.25 0  0.4375 0.25 0  0.46875 0.25 0  0.5 0.25 0  0.53125 0.25 0  0.5625 0.25 0  0.59375 0.25 0  0.625 0.25 0  0.65625 0.25 0  0.6875 0.25 0  0.71875 0.25 0  0.75 0.25 0  0.78125 0.25 0  0.8125 0.25 0  0.84375 0.25 0  0.875 0.25 0  0.90625 0.25 0  0.9375 0.25 0  0.96875 0.25 0  1 0.25 0  1.03125 0.25 0  1.0625 0.25 0  1.09375 0.25 0  1.125 0.25 0  1.15625 0.25 0  1.1875 0.25 0  1.21875 0.25 0  1.25 0.25 0  1.28125 0.25 0  1.3125 0.25 0  1.34375 0.25 0  1.375 0.25 0  1.40625 0.25 0  1.4375 0.25 0  1.46875 0.25 0  1.5 0.25 0  0 0.28125 0  0.03125 0.28125 0  0.0625 0.28125 0  0.09375 0.28125 0  0.125 0.28125 0  0.15625 0.28125 0  0.1875 0.28125 0  0.21875 0.28125 0  0.25 0.28125 0  0.28125 0.28125 0  0.3125 0.28125 0  0.34375 0.28125 0  0.375 0.28125 0  0.40625 0.28125 0  0.4375 0.28125 0  0.46875 0.28125 0  0.5 0.28125 0  0.53125 0.28125 0  0.5625 0.28125 0  0.59375 0.28125 0  0.625 0.28125 0  0.65625 0.28125 0  0.6875 0.28125 0  0.71875 0.28125 0  0.75 0.28125 0  0.78125 0.28125 0  0.8125 0.28125 0  0.84375 0.28125 0  0.875 0.28125 0  0.90625 0.28125 0  0.9375 0.28125 0  0.96875 0.28125 0  1 0.28125 0  1.03125 0.28125 0  1.0625 0.28125 0  1.09375 0.28125 0  1.125 0.28125 0  1.15625 0.28125 0  1.1875 0.28125 0  1.21875 0.28125 0  1.25 0.28125 0  1.28125 0.28125 0  1.3125 0.28125 0  1.34375 0.28125 0  1.375 0.28125 0  1.40625 0.28125 0  1.4375 0.28125 0  1.46875 0.28125 0  1.5 0.28125 0  0 0.3125 0  0.03125 0.3125 0  0.0625 0.3125 0  0.09375 0.3125 0  0.125 0.3125 0  0.15625 0.3125 0  0.1875 0.3125 0  0.21875 0.3125 0  0.25 0.3125 0  0.28125 0.3125 0  0.3125 0.3125 0  0.34375 0.3125 0  0.375 0.3125 0  0.40625 0.3125 0  0.4375 0.3125 0  0.46875 0.3125 0  0.5 0.3125 0  0.53125 0.3125 0  0.5625 0.3125 0  0.59375 0.3125 0  0.625 0.3125 0  0.65625 0.3125 0  0.6875 0.3125 0  0.71875 0.3125 0  0.75 0.3125 0  0.78125 0.3125 0  0.8125 0.3125 0  0.84375 0.3125 0  0.875 0.3125 0  0.90625 0.3125 0  0.9375 0.3125 0  0.96875 0.3125 0  1 0.3125 0  1.03125 0.3125 0  1.0625 0.3125 0  1.09375 0.3125 0  1.125 0.3125 0  1.15625 0.3125 0  1.1875 0.3125 0  1.21875 0.3125 0  1.25 0.3125 0  1.28125 0.3125 0  1.3125 0.3125 0  1.34375 0.3125 0  1.375 0.3125 0  1.40625 0.3125 0  1.4375 0.3125 0  1.46875 0.3125 0  1.5 0.3125 0  0 0.34375 0  0.03125 0.34375 0  0.0625 0.34375 0  0.09375 0.34375 0  0.125 0.34375 0  0.15625 0.34375 0  0.1875 0.34375 0  0.21875 0.34375 0  0.25 0.34375 0  0.28125 0.34375 0  0.3125 0.34375 0  0.34375 0.34375 0  0.375 0.34375 0  0.40625 0.34375 0  0.4375 0.34375 0  0.46875 0.34375 0  0.5 0.34375 0  0.53125 0.34375 0  0.5625 0.34375 0  0.59375 0.34375 0  0.625 0.34375 0  0.65625 0.34375 0  0.6875 0.34375 0  0.71875 0.34375 0  0.75 0.34375 0  0.78125 0.34375 0  0.8125 0.34375 0  0.84375 0.34375 0  0.875 0.34375 0  0.90625 0.34375 0  0.9375 0.34375 0  0.96875 0.34375 0  1 0.34375 0  1.03125 0.34375 0  1.0625 0.34375 0  1.09375 0.34375 0  1.125 0.34375 0  1.15625 0.34375 0  1.1875 0.34375 0  1.21875 0.34375 0  1.25 0.34375 0  1.28125 0.34375 0  1.3125 0.34375 0  1.34375 0.34375 0  1.375 0.34375 0  1
[...]
<PointData  Scalars="f_65"> 
<DataArray  type="Float64"  Name="f_65"  format="ascii">1.3635468985008754e+00  5.8213657596025381e-01  5.5665694245811437e-01  5.8405174160425655e-01  5.8915080284862287e-01  5.9384861091488705e-01  5.9602413398402176e-01  5.9576392387044186e-01  5.9359072505689936e-01  5.9006080063200206e-01  5.8567648992886423e-01  5.8082864605513929e-01  5.7578218001770576e-01  5.7069682866432558e-01  5.6565910175160128e-01  5.6071097911900247e-01  5.5587000053537272e-01  5.5114109517504606e-01  5.4652259128115199e-01  5.4200885991541892e-01  5.3759133992102104e-01  5.3325898763493584e-01  5.2899870506715496e-01  5.2479599642583330e-01  5.2063590657794268e-01  5.1650415614081169e-01  5.1238829513699746e-01  5.0827866072579442e-01  5.0416895190741962e-01  5.0005631569818831e-01  4.9594093699746122e-01  4.9182520675285102e-01  4.8771249165050568e-01  4.8360547063641185e-01  4.7950319153364751e-01  4.7539629103957937e-01  4.7125574429430606e-01  4.6701711909662330e-01  4.6254713159634775e-01  4.5761454645434607e-01  4.5184033059393092e-01  4.4482197134021317e-01  4.3520869292319181e-01  4.2716355179277454e-01  3.9441923701750886e-01  4.4792199260003973e-01  2.0437180758598081e-01  5.3859039456446434e-01  9.0536710977963869e-02  1.6338536698390553e+00  3.8936468304539312e-01  3.8108265564590282e-01  4.4872133418037652e-01  4.6103374851474760e-01  4.7116832729527980e-01  4.8001890715493356e-01  4.8648929149357606e-01  4.9104421456217107e-01  4.9416327079641709e-01  4.9631024761855624e-01  4.9785874769978250e-01  4.9906883002216751e-01  5.0010171525860103e-01  5.0104872876992335e-01  5.0195857544938738e-01  5.0285683839697159e-01  5.0375755258583055e-01  5.0466904861802153e-01  5.0559641303891101e-01  5.0654226035596728e-01  5.0750683467088109e-01  5.0848799390626465e-01  5.0948135700851549e-01  5.1048073006857497e-01  5.1147880956488490e-01  5.1246806775990372e-01  5.1344166293659255e-01  5.1439419992095659e-01  5.1532219790248279e-01  5.1622418156084504e-01  5.1710036150396488e-01  5.1795182217896707e-01  5.1877898221248708e-01  5.1957846176031874e-01  5.2033705067062141e-01  5.2101928489171467e-01  5.2154707942388590e-01  5.2176624369510594e-01  5.2140987364705615e-01  5.2005780555462833e-01  5.1722826580749703e-01  5.1185972371398691e-01  5.0598601677991739e-01  4.8523965346365200e-01  5.1303326982894659e-01  3.8856765128039000e-01  5.5768785547265287e-01  1.2755921580464546e-01  1.6263815086036126e+00  3.9697138954024780e-01  3.8861907281450914e-01  4.7377789870752152e-01  4.7949742097376030e-01  4.8623981529438426e-01  4.9439380662717092e-01  4.9997187315467906e-01  5.0359289837084520e-01  5.0572479119417091e-01  5.0683671644086870e-01  5.0732052090282564e-01  5.0745598084949428e-01  5.0741783255570416e-01  5.0730389994651648e-01  5.0716406090403054e-01  5.0702189080743187e-01  5.0688791531827548e-01  5.0676654734675253e-01  5.0665921942283898e-01  5.0656558115118289e-01  5.0648387546939111e-01  5.0641107234240923e-01  5.0634303401487846e-01  5.0627482396869006e-01  5.0620117524673125e-01  5.0611706198056194e-01  5.0601826599347843e-01  5.0590181202977702e-01  5.0576617050491834e-01  5.0561117513745024e-01  5.0543763488426485e-01  5.0524653331429781e-01  5.0503753208513580e-01  5.0480576023346413e-01  5.0453568641608215e-01  5.0418803271412804e-01  5.0368057426891144e-01  5.0285317498418702e-01  5.0144484836184466e-01  4.9904586545727847e-01  4.9525063027086685e-01  4.8911836354370858e-01  4.8278565144092978e-01  4.6317382447693556e-01  4.9270900751338326e-01  3.6010429562280677e-01  5.5456602042926162e-01  9.3317578168362156e-02  1.6356354142692648e+00  3.9619241863700388e-01  3.8553369455307751e-01  4.7113493045754395e-01  4.7112187007045137e-01  4.7765089116613196e-01  4.8653086657847300e-01  4.9225670327376481e-01  4.9615211442023083e-01  4.9860097137944881e-01  5.0002884679718917e-01  5.0081633897490885e-01  5.0124181321753991e-01  5.0148083652114517e-01  5.0163205179302484e-01  5.0174568469809488e-01  5.0184539662460681e-01  5.0194182246808139e-01  5.0203968968295154e-01  5.0214102543765260e-01  5.0224634501212306e-01  5.0235495912344441e-01  5.0246499950309675e-01  5.0257346688158466e-01  5.0267645424361185e-01  5.0276959632531293e-01  5.0284869236036345e-01  5.0291035273492868e-01  5.0295247762767359e-01  5.0297442346564980e-01  5.0297681490653590e-01  5.0296103246407431e-01  5.0292831828884532e-01  5.0287823503492468e-01  5.0280544651022430e-01  5.0269359093999966e-01  5.0250240347576824e-01  5.0214881757196839e-01  5.0147483477714050e-01  5.0022522953944726e-01  4.9801731075237760e-01  4.9447677430350701e-01  4.8876585734054301e-01  4.8314149887491026e-01  4.6426670447292906e-01  4.9641020044140016e-01  3.6480770846438404e-01  5.6047919669621848e-01  9.8604713635208369e-02  1.6392595983950244e+00  3.9839726889682259e-01  3.8987264646886327e-01  4.7348414301076081e-01  4.7154176886139976e-01  4.7853874966937909e-01  4.8713870362327355e-01  4.9240731547205979e-01  4.9612495458651334e-01  4.9843739965876077e-01  4.9974300942607852e-01  5.0041768250829710e-01  5.0073628212787746e-01  5.0087313336519546e-01  5.0092633759506366e-01  5.0094581315156250e-01  5.0095509985745235e-01  5.0096494208435272e-01  5.0098042378792151e-01  5.0100412811090866e-01  5.0103718825146815e-01  5.0107940352807789e-01  5.0112905072247382e-01  5.0118276891646329e-01  5.0123576678758552e-01  5.0128247044576935e-01  5.0131753132977541e-01  5.0133689617214616e-01  5.0133854248958720e-01  5.0132261832991376e-01  5.0129099054821136e-01  5.0124638313659209e-01  5.0119119435405246e-01  5.0112580245526950e-01  5.0104534284637825e-01  5.0093372662644819e-01  5.0075111947579987e-01  5.0041590368257760e-01  4.9977384978501194e-01  4.9858002283039365e-01  4.9646721931099808e-01  4.9310431115872655e-01  4.8766320726934670e-01  4.8253495611972502e-01  4.6420799388632006e-01  4.9722326254283838e-01  3.6559263932189634e-01  5.6435421060215030e-01  1.0097663675447120e-01  1.6423837216672392e+00  4.0031814585708803e-01  3.9117177390793895e-01  4.7353143123703556e-01  4.7136649453677898e-01  4.7839714937009897e-01  4.8654910403132356e-01  4.9165434525629964e-01  4.9536662906066598e-01  4.9765722583529981e-01  4.9895464323043753e-01  4.9962924796099673e-01  4.9994980218380008e-01  5.0008865217560028e-01  5.0014301732914312e-01  5.0016267253846036e-01  5.0017153022976990e-01  5.0018111069147508e-01  5.0019764633507757e-01  5.0022509996669984e-01  5.0026592259327907e-01  5.0032081220414248e-01  5.0038807783166728e-01  5.0046318774265719e-01  5.0053897043261486e-01  5.0060674483461221e-01  5.0065824009859949e-01  5.0068762798240729e-01  5.0069275965495519e-01  5.0067512875965625e-01  5.0063877700196824e-01  5.0058871496852086e-01  5.0052923255162607e-01  5.0046199813681902e-01  5.0038287817996974e-01  5.0027618845169475e-01  5.0010253799523807e-01  4.9978149834580321e-01  4.9916165591369771e-01  4.9800468959604804e-01  4.9595411005297441e-01  4.9269924254047515e-01  4.8742650093525730e-01  4.8256921313816459e-01  4.6453820932677503e-01  4.9811815482334793e-01  3.6639048186877377e-01  5.6729434800075096e-01  1.0153875080338837e-01  1.6449483245115000e+00  4.0186978735499779e-01  3.9228586020910144e-01  4.7418948492653451e-01  4.7195962418934828e-01  4.7872965395160527e-01  4.8662876698944785e-01  4.9169593807854961e-01  4.9536452328926162e-01  4.9760428665975115e-01  4.9887364060978689e-01  4.9952567018120053e-01  4.9982459732105528e-01  4.9994172300504958e-01  4.9997366776097668e-01  4.9997043053300544e-01  4.9995669770336737e-01  4.9994527996997773e-01  4.9994439552474040e-01  4.9996038789073710e-01  4.9999807374658300e-01  5.0005990951057711e-01  5.0014433924174206e-01  5.0024461205512782e-01  5.0034889046437903e-01  5.0044236856663493e-01  5.0051121272734800e-01  5.0054664450322950e-01  5.0054694909205799e-01  5.0051665345152330e-01  5.0046388653142482e-01  5.0039743222804811e-01  5.0032430203088951e-01  5.0024769961218041e-01  5.0016407424534948e-01  5.0005776425974136e-01  4.9988928198899912e-01  4.9957853742067021e-01  4.9897552807611867e-01  4.9784575608834047e-01  4.9583874440277409e-01  4.9265735230550889e-01  4.8749194752552305e-01  4.8281445864253958e-01  4.6496344853176630e-01  4.9893885204741673e-01  3.6706393717098224e-01  5.7003143246890264e-01  1.0264545571077113e-01  1.6470272078850623e+00  4.0298813564477393e-01  3.9298978937236867e-01  4.7461903977550285e-01  4.7227114663034175e-01  4.7885935017340048e-01  4.8667882273991148e-01  4.9172306457166748e-01  4.9534988222628301e-01  4.9757021928162604e-01  4.9883371317924852e-01  4.9947814243742117e-01  4.9976788614600715e-01  4.9987339831941563e-01  4.9989081027371074e-01  4.9987052916919306e-01  4.9983813802950072e-01  4.9980829052693121e-01  4.9979245650092208e-01  4.9980089064070110e-01  4.9984293353305553e-01  4.9992487278122577e-01  5.0004590367299306e-01  5.0019556706404134e-01  5.0035325800369956e-01  5.0049236753312232e-01  5.0058897902192534e-01  5.0063039171786883e-01  5.0061782010857325e-01  5.0056281716946804e-01  5.0048111001699369e-01  5.0038734494070258e-01  5.0029194435801860e-01  5.0019940510868044e-01  5.0010607825665598e-01  4.9999552954838400e-01  4.9982738099506230e-01  4.9952102472298759e-01  4.9892669551248559e-01  4.9781186040029685e-01  4.9582927064950677e-01  4.9269070979993657e-01  4.8758882652313901e-01  4.8302479019517885e-01  4.6528685953190946e-01  4.9955489466712094e-01  3.6754797766889169e-01  5.7219900741324881e-01  1.0342352121193921e-01  1.6487169772666470e+00  4.0379827083121245e-01  3.9345595344069489e-01  4.7490331891108267e-01  4.7246849536087909e-01  4.7895606248992117e-01  4.8672943476602037e-01  4.9174340011576773e-01  4.9534965148318677e-01  4.9756851240946187e-01  4.9883111527316204e-01  4.9947153709931003e-01  4.9975485352725768e-01  4.9984967842655775e-01  4.9985155794655717e-01  4.9981091443370590e-01  4.9975384410553714e-01  4.9969757852781793e-01  4.9965834075904636e-01  4.9965250204340644e-01  4.9969857752867275e-01  4.9981072053026404e-01  4.9999033743053151e-01  5.0022118464662324e-01  5.0046552586687276e-01  5.0067302885774978e-01  5.0080170203980690e-01  5.0083595069487141e-01  5.0078750021653085e-01  5.0068334775020407e-01  5.0055235237667650e-01  5.0041704515742036e-01  5.0029084872144014e-01  5.0017805181750030e-01  5.0007324993628555e-01  4.9995785982850449e-01  4.9978960220488644e-01  4.9948657417929609e-01  4.9889850081840126e-01  4.9779371061120775e-01  4.9582679634022025e-01  4.9271577197943162e-01  4.8765493806615190e-01  4.8316895982886082e-01  4.6550911864687061e-01  5.0000308302249463e-01  3.6788757185992349e-01  5.7394093884527020e-01  1.0402815590830503e-01  1.6500884550325621e+00  4.0438349416870517e-01  3.9376013851402142e-01  4.7508820546379438e-01  4.7259296938440593e-01  4.7901087275193960e-01  4.8674810602283491e-01  4.9174465956117291e-01  4.9534685808226242e-01  4.9756867258434201e-01  4.9883242551461621e-01  4.9947231606308273e-01  4.9975150326717199e-01  4.9983632245781234e-01  4.9982131178759925e-01  4.9975551508546046e-01  4.9966483383286792e-01  4.9956968708105892e-01  4.9949179390059700e-01  4.9945774509235169e-01  4.9950468430893241e-01  4.9966074393612325e-01  4.9993418396840916e-01  5.0030126288129906e-01  5.0068777072020598e-01  5.0099304039725190e-01  5.0114439885604445e-01  5.0113366392602288e-01  5.0100318699892465e-01  5.0081095386021957e-01  5.0060531102188832e-01  5.0041611689071275e-01  5.0025616777661641e-01  5.0012558179286570e-01  5.0001413169268405e-01  4.9989914154784976e-01  4.9973538340704371e-01  4.9943914846828219e-01  4.9885935360812739e-01  4.9776474604661353e-01  4.9581115107702195e-01  4.9272123175063792e-01  4.8769084708760124e-01  4.8326315738849934e-01  4.6566247250229031e-01  5.0033564492109850e-01  3.6813269457079684e-01  5.7534045131814471e-01  1.0451160381435554e-01  1.6511990876632139e+00  4.0481052937786355e-01  3.9396389282755306e-01  4.7521527691281895e-01  4.7267593554555293e-01  4.7904277765613335e-01  4.8675560845333826e-01  4.9174484986800648e-01  4.9534774880855154e-01  4.9757369261841178e-01  4.9884168179550636e-01  4.9948433133520764e-01  4.9976191412002324e-01  4.9983853884038559e-01  4.9980646244195431e-01  4.9971092887154822e-01  4.9957701077753025e-01  4.9942636509444999e-01  4.9928571556119339e-01  4.9920027226577751e-01  4.9924020202812464e-01  4.9945593917340170e-01  4.9988115212577494e-01  5.0048477746666775e-01  5.0110515577719972e-01  5.0153134229137009e-01  5.0164868845607868e-01  5.0149930692387545e-01  5.0120229475456046e-01  5.0086845518141676e-01  5.0056591433687680e-01  5.0032250492717412e-01  5.0014009706408724e-01  5.0000704571858789e-01  4.9990391694151454e-01  4.9980198737395221e-01  4.9965257704811844e-01  4.9937034361685134e-01  4.9880375609280747e-01  4.9772215988339108e-01  4.9578261073611185e-01  4.9271151774677147e-01  4.8770646890259878e-01  4.8332491504935793e-01  4.6577200381895240e-01  5.0058823524515772e-01  3.6831749027633792e-01  5.7647187138739431e-01  1.0489871960416623e-01  1.6520889410903961e+00  4.0512311041029281e-01  3.9410398339597630e-01  4.7530863534204348e-01  4.7273741567276051e-01  4.7906734057528622e-01  4.8676417365173735e-01  4.9175071241657647e-01  4.9535656524643312e-01  4.9758919564483478e-01  4.9886504321903702e-01  4.9951447354453044e-01  4.9979545626462551e-01  4.9986958306749318e-01  4.9982503510631388e-01  4.9970090486657148e-01  4.9952005917171194e-01  4.9929668592483389e-01  4.9906479625620415e-01  4.9889604732924342e-01  4.9890969649842942e-01  4.9919435170859144e-01  4.9987262152174067e-01  5.0090611505000771e-01  5.0190203851025550e-01  5.0241221819371318e-01  5.0230987961724127e-01  5.0182426383263301e-01  5.0123359677614820e-01  5.0071049146596835e-01  5.0031809284180873e-01  5.0005417343844261e-01  4.9988990784952514e-01  4.9979143770262402e-01  4.9972622358222657e-01  4.9965919779075585e-01  4.9953945659847682e-01  4.9928159494012603e-01  4.9873500533265380e-01  4.9767053384381266e-01  4.9574699026241253e-01  4.9269414958175062e-01  4.8771165655032839e-01  4.8336780010946240e-01  4.6585493341509515e-01  5.0078456322534737e-01  3.6846390787842254e-01  5.7738638908839257e-01  1.0521254579429298e-01  1.6527862627586043e+00  4.0534914267181432e-01  3.9420061305834669e-01  4.7537899717000870e-01  4.7278488253384726e-01  4.7908843865643824e-01  4.8677506792832936e-01  4.9176199653915326e-01  4.9537327251724678e-01  4.9761549131498223e-01  4.9890313674299636e-01  4.9956520434703378e-01  4.9985825672450857e-01  4.9994144662453327e-01  4.9989814142693206e-01  4.9976057891817316e-01  4.9954472545305628e-01  4.9924377043474777e-01  4.9890857842622927e-01  4.9861382355480033e-01  4.9855754043511386e-01  4.9888458331918428e-01  5.0001088356552592e-01  5.0186227171886943e-01  5.0339951629213431e-01  5.0373203730646365e-01  5.0293906418858170e-01  5.0178215771929757e-01  5.0077688223605854e-01  5.0009029328396903e-01  4.9969740572336940e-01  4.9951288402045280e-01  4.9945282018935316e-01  4.9945403167992136e-01  4.9947217583930986e-01  4.9947006792184023e-01  4.9939903718050516e-01  4.9917724993766216e-01  4.9865762208004849e-01  4.9761411923816368e-01  4.9570824705062211e-01  4.9267312250521844e-01  4.8771082567345986e-01  4.8339767755909629e-01  4.6591846001177517e-01  5.0093564575506400e-01  3.6858160994086758e-01  5.7811185076122917e-01  1.0546180205420133e-01  1.6533114711481880e+00  4.0550685271083753e-01  3.9426536673538309e-01  4.7543114482733834e-01  4.7282092792003177e-01  4.7910638184293292e-01  4.8678717382219744e-01  4.9177671238441351e-01  4.9539521358080307e-01  4.9764915894146988e-01  4.9895220934692908e-01  4.9963329132255374e-01  4.9994892111918166e-01  5.0005736496269304e-01  5.0003905012608929e-01  4.9992107525952439e-01  4.9970629411926903e-01  4.9936245257797096e-01  4.9895286134303057e-01  4.9846636427528085e-01  4.9827351701462375e-01  4.9849016234708204e-01  5.0053594234641308e-01  5.0395003689114393e-01  5.0598620604536881e-01  5.0528214864054000e-01  5.0285287662132661e-01  5.0067320850110986e-01  4.9933070218230191e-01  4.9870659124154282e-01  4.9855096508433194e-01  4.9863519769325249e-01  4.9881196773676867e-01  4.9899904522787958e-01  4.9915359161407541e-01  4.9924762765627240e-01  4.9924295083160608e-01  4.9906676800380312e-01  4.9857892014625205e-01  4.9755842255770866e-01  4.9567051358841230e-01  4.9265172098431959e-01  4.8770683329057302e-01  4.8341784163675555e-01  4.6596619295961178e-01  5.0104746919542065e-01  3.6867533664781516e-01  5.7866375914064605e-01  1.0565107198946534e-01  1.6536795212405473e+00  4.0560856191125105e-01  3.9430542491966292e-01  4.7546738582735437e-01  4.7284629705495790e-01  4.7912024432937322e-01  4.8679831404381924e-01  4.9179144167786026e-01  4.9541748488575765e-01  4.9768339442574994e-01  4.9900302711777333e-01  4.9970639422516100e-01  5.0005162395693348e-01  5.0019875897461874e-01  5.0022949912348547e-01  5.0017085870242795e-01  5.0001665019409613e-01  4.9972762970438489e-01  4.9934655539297151e-01  4.9873624058154020e-01  4.9852661593489428e-01  4.9827098481102544e-01  5.0240388315923978e-01  5.0789932494079970e-01  5.0928491166216316e-01  5.0589315109426281e-01  5.0057495509597871e-01  4.9741170639391569e-01  4.9639863663608008e-01  4.9642906705124412e-01  4.9690179103627785e-01  4.9749495024455953e-01  4.9804472130106786e-01  4.9849042916346842e-01  4.9881814390464130e-01  4.9902557399002895e-01  4.9909435332836771e-01  4.9896583635445663e-01  4.9850945622334075e-01  4.9751053285373947e-01  4.9563856793594779e-01  4.9263327785369149e-01  4.8770213553766045e-01  4.8343064365968008e-01  4.6600031324874719e-01  5.0112364313012014e-01  3.6874755626956685e-01  5.7905041082787456e-01  1.0578229489309872e-01  1.6539008771902666e+00  4.0566246633618025e-01  3.9432536767533904e-01  4.7548891637847301e-01  4.7286108457367965e-01  4.7912884004486744e-01  4.8680613939750544e-01  4.9180239361070199e-01  4.9543427791248962e-01  4.9770935857913379e-01  4.9904209592082804e-01  4.9976393384152218e-01  5.0013527356468257e-01  5.0031941215696218e-01  5.0040248883582927e-01  5.0041729505923060e-01  5.0036305834315631e-01  5.0021810383039600e-01  4.9998490613046925e-01  4.9950037461304203e-01  4.9917376199933489e-01  4.9726309478471842e-01  5.0527145705901699e-01  5.1141170910913636e-01  5.0950187497690924e-01  5.0271527951230455e-01  4.9486723385326964e-01  4.9173828046629198e-01  4.9217368808023243e-01  4.9371280425201608e-01  4.9518239994384411e-01  4.9641177796708902e-01  4.9736606052505261e-01  4.9806582410302835e-01  4.9855154591478779e-01  4.9885653908879052e-01  4.9898544096851438e-01  4.9889422771542768e-01  4.9846148418609509e-01  4.9747813638709698e-01  4.9561730503063312e-01  4.9262101179517187e-01  4.8769894746962178e-01  4.8343794773748366e-01  4.6602236394654273e-01  5.0116648523181573e-01  3.6879968832897797e-01  5.7927610804688423e-01  1.0585607914519096e-01  1.6539817981985934e+00  4.0567331927331174e-01  3.9432776973976891e-01  4.7549623831363180e-01  4.7286515815983932e-01  4.7913118223700268e-01  4.8680879590987841e-01  4.9180650694843631e-01  4.9544070117563571e-01  4.9771922411816971e-01  4.9905680412752468e-01  4.9978547629299369e-01  5.0016659881280934e-01  5.0036490765867103e-01  5.0046870056636372e-01  5.0051401787736971e-01  5.0050495228841618e-01  5.0042775425916630e-01  5.0024983213308771e-01  4.9985146458272223e-01  4.9894779856008487e-01  4.9585524176634999e-01  5.0607828935863719e-01  5.0340977461041991e-01  5.0589864326504996e-01  4.9757425444935804e-01  4.7842256176247056e-01  4.8677412813749743e-01  4.8930440210367188e-01  4.9213162071207489e-01  4.9431756098694379e-01  4.9591685572963912e-01  4.9707669535393451e-01  4.9789427843934403e-01  4.9844868877805421e-01  4.9879394236654118e-01  4.9894651859338762e-01  4.9886935816189742e-01  4.9844519256249709e-01  4.9746732061069615e-01  4.9561045384183899e-01  4.9261728654046122e-01  4.8769885074593378e-01  4.8344098115456324e-01  4.6603333476154662e-01  5.0117728671294259e