<?xml version="1.0"?>
<VTKFile type="UnstructuredGrid"  version="0.1"  >
<UnstructuredGrid>
<Piece  NumberOfPoints="1617" NumberOfCells="3072">
<Points>
<DataArray  type="Float64"  NumberOfComponents="3"  format="ascii">0 0 0  0.03125 0 0  0.0625 0 0  0.09375 0 0  0.125 0 0  0.15625 0 0  0.1875 0 0  0.21875 0 0  0.25 0 0  0.28125 0 0  0.3125 0 0  0.34375 0 0  0.375 0 0  0.40625 0 0  0.4375 0 0  0.46875 0 0  0.5 0 0  0.53125 0 0  0.5625 0 0  0.59375 0 0  0.625 0 0  0.65625 0 0  0.6875 0 0  0.71875 0 0  0.75 0 0  0.78125 0 0  0.8125 0 0  0.84375 0 0  0.875 0 0  0.90625 0 0  0.9375 0 0  0.96875 0 0  1 0 0  1.03125 0 0  1.0625 0 0  1.09375 0 0  1.125 0 0  1.15625 0 0  1.1875 0 0  1.21875 0 0  1.25 0 0  1.28125 0 0  1.3125 0 0  1.34375 0 0  1.375 0 0  1.40625 0 0  1.4375 0 0  1.46875 0 0  1.5 0 0  0 0.03125 0  0.03125 0.03125 0  0.0625 0.03125 0  0.09375 0.03125 0  0.125 0.03125 0  0.15625 0.03125 0  0.1875 0.03125 0  0.21875 0.03125 0  0.25 0.03125 0  0.28125 0.03125 0  0.3125 0.03125 0  0.34375 0.03125 0  0.375 0.03125 0  0.40625 0.03125 0  0.4375 0.03125 0  0.46875 0.03125 0  0.5 0.03125 0  0.53125 0.03125 0  0.5625 0.03125 0  0.59375 0.03125 0  0.625 0.03125 0  0.65625 0.03125 0  0.6875 0.03125 0  0.71875 0.03125 0  0.75 0.03125 0  0.78125 0.03125 0  0.8125 0.03125 0  0.84375 0.03125 0  0.875 0.03125 0  0.90625 0.03125 0  0.9375 0.03125 0  0.96875 0.03125 0  1 0.03125 0  1.03125 0.03125 0  1.0625 0.03125 0  1.09375 0.03125 0  1.125 0.03125 0  1.15625 0.03125 0  1.1875 0.03125 0  1.21875 0.03125 0  1.25 0.03125 0  1.28125 0.03125 0  1.3125 0.03125 0  1.34375 0.03125 0  1.375 0.03125 0  1.40625 0.03125 0  1.4375 0.03125 0  1.46875 0.03125 0  1.5 0.03125 0  0 0.0625 0  0.03125 0.0625 0  0.0625 0.0625 0  0.09375 0.0625 0  0.125 0.0625 0  0.15625 0.0625 0  0.1875 0.0625 0  0.21875 0.0625 0  0.25 0.0625 0  0.28125 0.0625 0  0.3125 0.0625 0  0.34375 0.0625 0  0.375 0.0625 0  0.40625 0.0625 0  0.4375 0.0625 0  0.46875 0.0625 0  0.5 0.0625 0  0.53125 0.0625 0  0.5625 0.0625 0  0.59375 0.0625 0  0.625 0.0625 0  0.65625 0.0625 0  0.6875 0.0625 0  0.71875 0.0625 0  0.75 0.0625 0  0.78125 0.0625 0  0.8125 0.0625 0  0.84375 0.0625 0  0.875 0.0625 0  0.90625 0.0625 0  0.9375 0.0625 0  0.96875 0.0625 0  1 0.0625 0  1.03125 0.0625 0  1.0625 0.0625 0  1.09375 0.0625 0  1.125 0.0625 0  1.15625 0.0625 0  1.1875 0.0625 0  1.21875 0.0625 0  1.25 0.0625 0  1.28125 0.0625 0  1.3125 0.0625 0  1.34375 0.0625 0  1.375 0.0625 0  1.40625 0.0625 0  1.4375 0.0625 0  1.46875 0.0625 0  1.5 0.0625 0  0 0.09375 0  0.03125 0.09375 0  0.0625 0.09375 0  0.09375 0.09375 0  0.125 0.09375 0  0.15625 0.09375 0  0.1875 0.09375 0  0.21875 0.09375 0  0.25 0.09375 0  0.28125 0.09375 0  0.3125 0.09375 0  0.34375 0.09375 0  0.375 0.09375 0  0.40625 0.09375 0  0.4375 0.09375 0  0.46875 0.09375 0  0.5 0.09375 0  0.53125 0.09375 0  0.5625 0.09375 0  0.59375 0.09375 0  0.625 0.09375 0  0.65625 0.09375 0  0.6875 0.09375 0  0.71875 0.09375 0  0.75 0.09375 0  0.78125 0.09375 0  0.8125 0.09375 0  0.84375 0.09375 0  0.875 0.09375 0  0.90625 0.09375 0  0.9375 0.09375 0  0.96875 0.09375 0  1 0.09375 0  1.03125 0.09375 0  1.0625 0.09375 0  1.09375 0.09375 0  1.125 0.09375 0  1.15625 0.09375 0  1.1875 0.09375 0  1.21875 0.09375 0  1.25 0.09375 0  1.28125 0.09375 0  1.3125 0.09375 0  1.34375 0.09375 0  1.375 0.09375 0  1.40625 0.09375 0  1.4375 0.09375 0  1.46875 0.09375 0  1.5 0.09375 0  0 0.125 0  0.03125 0.125 0  0.0625 0.125 0  0.09375 0.125 0  0.125 0.125 0  0.15625 0.125 0  0.1875 0.125 0  0.21875 0.125 0  0.25 0.125 0  0.28125 0.125 0  0.3125 0.125 0  0.34375 0.125 0  0.375 0.125 0  0.40625 0.125 0  0.4375 0.125 0  0.46875 0.125 0  0.5 0.125 0  0.53125 0.125 0  0.5625 0.125 0  0.59375 0.125 0  0.625 0.125 0  0.65625 0.125 0  0.6875 0.125 0  0.71875 0.125 0  0.75 0.125 0  0.78125 0.125 0  0.8125 0.125 0  0.84375 0.125 0  0.875 0.125 0  0.90625 0.125 0  0.9375 0.125 0  0.96875 0.125 0  1 0.125 0  1.03125 0.125 0  1.0625 0.125 0  1.09375 0.125 0  1.125 0.125 0  1.15625 0.125 0  1.1875 0.125 0  1.21875 0.125 0  1.25 0.125 0  1.28125 0.125 0  1.3125 0.125 0  1.34375 0.125 0  1.375 0.125 0  1.40625 0.125 0  1.4375 0.125 0  1.46875 0.125 0  1.5 0.125 0  0 0.15625 0  0.03125 0.15625 0  0.0625 0.15625 0  0.09375 0.15625 0  0.125 0.15625 0  0.15625 0.15625 0  0.1875 0.15625 0  0.21875 0.15625 0  0.25 0.15625 0  0.28125 0.15625 0  0.3125 0.15625 0  0.34375 0.15625 0  0.375 0.15625 0  0.40625 0.15625 0  0.4375 0.15625 0  0.46875 0.15625 0  0.5 0.15625 0  0.53125 0.15625 0  0.5625 0.15625 0  0.59375 0.15625 0  0.625 0.15625 0  0.65625 0.15625 0  0.6875 0.15625 0  0.71875 0.15625 0  0.75 0.15625 0  0.78125 0.15625 0  0.8125 0.15625 0  0.84375 0.15625 0  0.875 0.15625 0  0.90625 0.15625 0  0.9375 0.15625 0  0.96875 0.15625 0  1 0.15625 0  1.03125 0.15625 0  1.0625 0.15625 0  1.09375 0.15625 0  1.125 0.15625 0  1.15625 0.15625 0  1.1875 0.15625 0  1.21875 0.15625 0  1.25 0.15625 0  1.28125 0.15625 0  1.3125 0.15625 0  1.34375 0.15625 0  1.375 0.15625 0  1.40625 0.15625 0  1.4375 0.15625 0  1.46875 0.15625 0  1.5 0.15625 0  0 0.1875 0  0.03125 0.1875 0  0.0625 0.1875 0  0.09375 0.1875 0  0.125 0.1875 0  0.15625 0.1875 0  0.1875 0.1875 0  0.21875 0.1875 0  0.25 0.1875 0  0.28125 0.1875 0  0.3125 0.1875 0  0.34375 0.1875 0  0.375 0.1875 0  0.40625 0.1875 0  0.4375 0.1875 0  0.46875 0.1875 0  0.5 0.1875 0  0.53125 0.1875 0  0.5625 0.1875 0  0.59375 0.1875 0  0.625 0.1875 0  0.65625 0.1875 0  0.6875 0.1875 0  0.71875 0.1875 0  0.75 0.1875 0  0.78125 0.1875 0  0.8125 0.1875 0  0.84375 0.1875 0  0.875 0.1875 0  0.90625 0.1875 0  0.9375 0.1875 0  0.96875 0.1875 0  1 0.1875 0  1.03125 0.1875 0  1.0625 0.1875 0  1.09375 0.1875 0  1.125 0.1875 0  1.15625 0.1875 0  1.1875 0.1875 0  1.21875 0.1875 0  1.25 0.1875 0  1.28125 0.1875 0  1.3125 0.1875 0  1.34375 0.1875 0  1.375 0.1875 0  1.40625 0.1875 0  1.4375 0.1875 0  1.46875 0.1875 0  1.5 0.1875 0  0 0.21875 0  0.03125 0.21875 0  0.0625 0.21875 0  0.09375 0.21875 0  0.125 0.21875 0  0.15625 0.21875 0  0.1875 0.21875 0  0.21875 0.21875 0  0.25 0.21875 0  0.28125 0.21875 0  0.3125 0.21875 0  0.34375 0.21875 0  0.375 0.21875 0  0.40625 0.21875 0  0.4375 0.21875 0  0.46875 0.21875 0  0.5 0.21875 0  0.53125 0.21875 0  0.5625 0.21875 0  0.59375 0.21875 0  0.625 0.21875 0  0.65625 0.21875 0  0.6875 0.21875 0  0.71875 0.21875 0  0.75 0.21875 0  0.78125 0.21875 0  0.8125 0.21875 0  0.84375 0.21875 0  0.875 0.21875 0  0.90625 0.21875 0  0.9375 0.21875 0  0.96875 0.21875 0  1 0.21875 0  1.03125 0.21875 0  1.0625 0.21875 0  1.09375 0.21875 0  1.125 0.21875 0  1.15625 0.21875 0  1.1875 0.21875 0  1.21875 0.21875 0  1.25 0.21875 0  1.28125 0.21875 0  1.3125 0.21875 0  1.34375 0.21875 0  1.375 0.21875 0  1.40625 0.21875 0  1.4375 0.21875 0  1.46875 0.21875 0  1.5 0.21875 0  0 0.25 0  0.03125 0.25 0  0.0625 0.25 0  0.09375 0.25 0  0.125 0.25 0  0.15625 0.25 0  0.1875 0.25 0  0.21875 0.25 0  0.25 0.25 0  0.28125 0.25 0  0.3125 0.25 0  0.34375 0.25 0  0.375 0.25 0  0.40625 0.25 0  0.4375 0.25 0  0.46875 0.25 0  0.5 0.25 0  0.53125 0.25 0  0.5625 0.25 0  0.59375 0.25 0  0.625 0.25 0  0.65625 0.25 0  0.6875 0.25 0  0.71875 0.25 0  0.75 0.25 0  0.78125 0.25 0  0.8125 0.25 0  0.84375 0.25 0  0.875 0.25 0  0.90625 0.25 0  0.9375 0.25 0  0.96875 0.25 0  1 0.25 0  1.03125 0.25 0  1.0625 0.25 0  1.09375 0.25 0  1.125 0.25 0  1.15625 0.25 0  1.1875 0.25 0  1.21875 0.25 0  1.25 0.25 0  1.28125 0.25 0  1.3125 0.25 0  1.34375 0.25 0  1.375 0.25 0  1.40625 0.25 0  1.4375 0.25 0  1.46875 0.25 0  1.5 0.25 0  0 0.28125 0  0.03125 0.28125 0  0.0625 0.28125 0  0.09375 0.28125 0  0.125 0.28125 0  0.15625 0.28125 0  0.1875 0.28125 0  0.21875 0.28125 0  0.25 0.28125 0  0.28125 0.28125 0  0.3125 0.28125 0  0.34375 0.28125 0  0.375 0.28125 0  0.40625 0.28125 0  0.4375 0.28125 0  0.46875 0.28125 0  0.5 0.28125 0  0.53125 0.28125 0  0.5625 0.28125 0  0.59375 0.28125 0  0.625 0.28125 0  0.65625 0.28125 0  0.6875 0.28125 0  0.71875 0.28125 0  0.75 0.28125 0  0.78125 0.28125 0  0.8125 0.28125 0  0.84375 0.28125 0  0.875 0.28125 0  0.90625 0.28125 0  0.9375 0.28125 0  0.96875 0.28125 0  1 0.28125 0  1.03125 0.28125 0  1.0625 0.28125 0  1.09375 0.28125 0  1.125 0.28125 0  1.15625 0.28125 0  1.1875 0.28125 0  1.21875 0.28125 0  1.25 0.28125 0  1.28125 0.28125 0  1.3125 0.28125 0  1.34375 0.28125 0  1.375 0.28125 0  1.40625 0.28125 0  1.4375 0.28125 0  1.46875 0.28125 0  1.5 0.28125 0  0 0.3125 0  0.03125 0.3125 0  0.0625 0.3125 0  0.09375 0.3125 0  0.125 0.3125 0  0.15625 0.3125 0  0.1875 0.3125 0  0.21875 0.3125 0  0.25 0.3125 0  0.28125 0.3125 0  0.3125 0.3125 0  0.34375 0.3125 0  0.375 0.3125 0  0.40625 0.3125 0  0.4375 0.3125 0  0.46875 0.3125 0  0.5 0.3125 0  0.53125 0.3125 0  0.5625 0.3125 0  0.59375 0.3125 0  0.625 0.3125 0  0.65625 0.3125 0  0.6875 0.3125 0  0.71875 0.3125 0  0.75 0.3125 0  0.78125 0.3125 0  0.8125 0.3125 0  0.84375 0.3125 0  0.875 0.3125 0  0.90625 0.3125 0  0.9375 0.3125 0  0.96875 0.3125 0  1 0.3125 0  1.03125 0.3125 0  1.0625 0.3125 0  1.09375 0.3125 0  1.125 0.3125 0  1.15625 0.3125 0  1.1875 0.3125 0  1.21875 0.3125 0  1.25 0.3125 0  1.28125 0.3125 0  1.3125 0.3125 0  1.34375 0.3125 0  1.375 0.3125 0  1.40625 0.3125 0  1.4375 0.3125 0  1.46875 0.3125 0  1.5 0.3125 0  0 0.34375 0  0.03125 0.34375 0  0.0625 0.34375 0  0.09375 0.34375 0  0.125 0.34375 0  0.15625 0.34375 0  0.1875 0.34375 0  0.21875 0.34375 0  0.25 0.34375 0  0.28125 0.34375 0  0.3125 0.34375 0  0.34375 0.34375 0  0.375 0.34375 0  0.40625 0.34375 0  0.4375 0.34375 0  0.46875 0.34375 0  0.5 0.34375 0  0.53125 0.34375 0  0.5625 0.34375 0  0.59375 0.34375 0  0.625 0.34375 0  0.65625 0.34375 0  0.6875 0.34375 0  0.71875 0.34375 0  0.75 0.34375 0  0.78125 0.34375 0  0.8125 0.34375 0  0.84375 0.34375 0  0.875 0.34375 0  0.90625 0.34375 0  0.9375 0.34375 0  0.96875 0.34375 0  1 0.34375 0  1.03125 0.34375 0  1.0625 0.34375 0  1.09375 0.34375 0  1.125 0.34375 0  1.15625 0.34375 0  1.1875 0.34375 0  1.21875 0.34375 0  1.25 0.34375 0  1.28125 0.34375 0  1.3125 0.34375 0  1.34375 0.34375 0  1.375 0.34375 0  1
[...]
<PointData  Scalars="f_65"> 
<DataArray  type="Float64"  Name="f_65"  format="ascii">1.5595156691769294e+00  2.8500765969012126e-01  4.6384224191155643e-01  4.8701508800854171e-01  4.9829885248776706e-01  5.0180988498666690e-01  5.0220574522820949e-01  5.0172745603442948e-01  5.0111718476263201e-01  5.0057801696373760e-01  5.0016220411750723e-01  4.9987583750272768e-01  4.9971495958113155e-01  4.9967323386642309e-01  4.9974453094412219e-01  4.9992357530401743e-01  5.0020588684245182e-01  5.0058761418366327e-01  5.0106523638630462e-01  5.0163520135980100e-01  5.0229355207259074e-01  5.0303559193883962e-01  5.0385566115404878e-01  5.0474708259854528e-01  5.0570231010845590e-01  5.0671325680619461e-01  5.0777174671452330e-01  5.0886996942686746e-01  5.1000087778764180e-01  5.1115837733810132e-01  5.1233744716641971e-01  5.1353389733791088e-01  5.1474446083269043e-01  5.1596598176731323e-01  5.1719640022941493e-01  5.1843207689167981e-01  5.1967272975554324e-01  5.2091098729336793e-01  5.2214948075934509e-01  5.2337744571254041e-01  5.2453466002760540e-01  5.2585224938944031e-01  5.2587483810858149e-01  5.2969250627738496e-01  5.1531623980158747e-01  5.4701192532259246e-01  4.6807557837384900e-01  3.6407022635450226e-01  5.5583021119081831e-02  2.4533719447549345e+00  5.8276260993187848e-02  4.6117146244534007e-01  4.9651830322567786e-01  4.9914746125328807e-01  5.0286555078416473e-01  5.0351568702594796e-01  5.0363203694057557e-01  5.0358830047241376e-01  5.0352586586206693e-01  5.0345718397807815e-01  5.0338465209431016e-01  5.0330911164445480e-01  5.0323153581395164e-01  5.0315334219327690e-01  5.0307607305258051e-01  5.0300135468827722e-01  5.0293082337086936e-01  5.0286598715561148e-01  5.0280807529988114e-01  5.0275787163357943e-01  5.0271557844245507e-01  5.0268075542866464e-01  5.0265237019802400e-01  5.0262897628365899e-01  5.0260899943582193e-01  5.0259107962628935e-01  5.0257439247739111e-01  5.0255888059534770e-01  5.0254534318017685e-01  5.0253539024316984e-01  5.0253126933683867e-01  5.0253566597003796e-01  5.0255142742384273e-01  5.0258145806880905e-01  5.0262835773455816e-01  5.0269459436697195e-01  5.0278194483005523e-01  5.0288938435059416e-01  5.0302288010354201e-01  5.0312650140685666e-01  5.0333175252415552e-01  5.0280466592728634e-01  5.0362476901945175e-01  4.9562188419373665e-01  5.0116942667445918e-01  4.7070116987768895e-01  3.2669288861517864e-01  -2.7764002664771863e-03  2.4224566870775655e+00  -4.7284354883645241e-02  4.7984903969216053e-01  4.9932105443832042e-01  4.9034607671877278e-01  4.9597784913243342e-01  4.9662198510593025e-01  4.9702086779279758e-01  4.9731611688645544e-01  4.9760885912024344e-01  4.9788466445837970e-01  4.9814432147117471e-01  4.9838679737442648e-01  4.9861223547629285e-01  4.9882061219110846e-01  4.9901182963885327e-01  4.9918578396878044e-01  4.9934231034999282e-01  4.9948118500416055e-01  4.9960211110458208e-01  4.9970470825441082e-01  4.9978851393142859e-01  4.9985299109287168e-01  4.9989754181010249e-01  4.9992152799256723e-01  4.9992429708325692e-01  4.9990522175515201e-01  4.9986373536965406e-01  4.9979938124105683e-01  4.9971180754451811e-01  4.9960081277141805e-01  4.9946623033474313e-01  4.9930808814059968e-01  4.9912621001736640e-01  4.9892094838420231e-01  4.9869164565791463e-01  4.9843973163401750e-01  4.9816238450249173e-01  4.9786414556068198e-01  4.9753720614304675e-01  4.9716499261564862e-01  4.9682167321994225e-01  4.9582818756812053e-01  4.9624073450585693e-01  4.8735257956609340e-01  4.9822510730220154e-01  4.5535198035789554e-01  3.3290521649904797e-01  -2.9603268683748695e-03  2.4344859719324230e+00  -3.7386422457982162e-02  5.0173008091768012e-01  5.0393947674452189e-01  4.9202654045250604e-01  5.0031309024847292e-01  5.0013294034259059e-01  5.0025408594389242e-01  5.0026561196256059e-01  5.0024665639208798e-01  5.0022002275086719e-01  5.0019285137404423e-01  5.0016672599986467e-01  5.0014229127456833e-01  5.0011951372157815e-01  5.0009851244215231e-01  5.0007940645046489e-01  5.0006232908942716e-01  5.0004741076622394e-01  5.0003473863025016e-01  5.0002432904451799e-01  5.0001609744326492e-01  5.0000983287575362e-01  5.0000518368803570e-01  5.0000166463179752e-01  4.9999869769205979e-01  4.9999569596606663e-01  4.9999216612642455e-01  4.9998780443412949e-01  4.9998251958283529e-01  4.9997642679592191e-01  4.9996972398885903e-01  4.9996270257086728e-01  4.9995548103460563e-01  4.9994837656418933e-01  4.9994103067631451e-01  4.9993422313556901e-01  4.9992620951638106e-01  4.9991883290168937e-01  4.9991042863174801e-01  4.9987022580360396e-01  4.9991204848176196e-01  4.9927098017977617e-01  5.0025863879443555e-01  4.9172916320328874e-01  5.0376812129285320e-01  4.6314786188309354e-01  3.5030365330110380e-01  5.1756256313694382e-03  2.4374617844699169e+00  -3.7762098608675125e-02  5.0422001648342285e-01  5.0217554772329176e-01  4.9173092601340423e-01  5.0094531336472337e-01  5.0006012177142189e-01  5.0034435822250578e-01  5.0037055312225343e-01  5.0033478210024651e-01  5.0030447764387909e-01  5.0027345876540263e-01  5.0024451768233302e-01  5.0021699790985197e-01  5.0019093992777852e-01  5.0016654362923740e-01  5.0014406159755731e-01  5.0012385122820124e-01  5.0010628547936808e-01  5.0009171831316657e-01  5.0008040253301356e-01  5.0007240698763866e-01  5.0006753322858377e-01  5.0006525260187162e-01  5.0006469856844593e-01  5.0006475329280076e-01  5.0006425043563563e-01  5.0006223332706223e-01  5.0005818223516085e-01  5.0005206818043224e-01  5.0004430930660893e-01  5.0003552007462504e-01  5.0002648196082822e-01  5.0001770796825784e-01  5.0000998559300691e-01  5.0000311344638659e-01  4.9999845144031968e-01  4.9999382054320651e-01  4.9999243324324727e-01  4.9998990288086220e-01  4.9996038244768271e-01  5.0000620798408368e-01  4.9938185337471841e-01  5.0036749999538488e-01  4.9186471382274116e-01  5.0401445491054708e-01  4.6322215541348810e-01  3.5217105899683243e-01  2.2003418844269264e-03  2.4399994995333496e+00  -3.7869742793891638e-02  5.0429767772012946e-01  5.0156464482153817e-01  4.9169279462400955e-01  5.0063690124979987e-01  4.9956140260800719e-01  5.0008498819443414e-01  5.0011351504904467e-01  5.0009988553639362e-01  5.0009774588385880e-01  5.0008743605392858e-01  5.0007767446470375e-01  5.0006726077061270e-01  5.0005690009149018e-01  5.0004680080703356e-01  5.0003742680425090e-01  5.0002933401297656e-01  5.0002316264788693e-01  5.0001959522140671e-01  5.0001917498589343e-01  5.0002218413763666e-01  5.0002845327719436e-01  5.0003720812947572e-01  5.0004701533492146e-01  5.0005593482475019e-01  5.0006193382191610e-01  5.0006343474944492e-01  5.0005973426813843e-01  5.0005104632644348e-01  5.0003827906198262e-01  5.0002259040003960e-01  5.0000519257313814e-01  4.9998691010968238e-01  4.9996864400209390e-01  4.9995031709466997e-01  4.9993313936001127e-01  4.9991514056846603e-01  4.9989895189300143e-01  4.9988093228997543e-01  4.9983323423350196e-01  4.9986196797345395e-01  4.9921267907701811e-01  5.0020121309829169e-01  4.9163777910672918e-01  5.0387394528867779e-01  4.6296382586900747e-01  3.5279971259529974e-01  1.2740685882579597e-03  2.4421733692406717e+00  -3.8376716499030149e-02  5.0418208967239497e-01  5.0163693872500326e-01  4.9180685925089279e-01  5.0058945219911199e-01  4.9959428953592777e-01  5.0018818003383347e-01  5.0017228353189647e-01  5.0016490316617579e-01  5.0015868299506816e-01  5.0014029682423167e-01  5.0012321508503788e-01  5.0010513553784286e-01  5.0008699145004609e-01  5.0006895167070786e-01  5.0005174601764280e-01  5.0003616453529465e-01  5.0002336722234975e-01  5.0001464783788307e-01  5.0001114532323221e-01  5.0001371900379699e-01  5.0002244506995863e-01  5.0003626459575778e-01  5.0005277828051131e-01  5.0006850646920264e-01  5.0007979192968588e-01  5.0008402113792549e-01  5.0008040447134283e-01  5.0006985445288077e-01  5.0005430775728454e-01  5.0003585764485403e-01  5.0001636858639664e-01  4.9999698509014562e-01  4.9997872274165100e-01  4.9996140864834787e-01  4.9994620622506208e-01  4.9993082357337004e-01  4.9991801970504202e-01  4.9990339280905166e-01  4.9985987490003947e-01  4.9989286730811938e-01  4.9924879998162147e-01  5.0026026621419262e-01  4.9168764261682546e-01  5.0400036149213934e-01  4.6297786311504097e-01  3.5328585853267364e-01  1.2109921347849579e-03  2.4441041828326977e+00  -3.8902956140071512e-02  5.0405296238670028e-01  5.0165717715506708e-01  4.9177703805549322e-01  5.0054287478362436e-01  4.9958522284941292e-01  5.0016366374377219e-01  5.0013911364366082e-01  5.0014731346754171e-01  5.0014098820661679e-01  5.0012390513740457e-01  5.0010765515601030e-01  5.0008920664821788e-01  5.0006955615374205e-01  5.0004899796895141e-01  5.0002843077413661e-01  5.0000889052838393e-01  4.9999244430348727e-01  4.9998125202633747e-01  4.9997758250881413e-01  4.9998369095460515e-01  5.0000030986298805e-01  5.0002608175901875e-01  5.0005685074070283e-01  5.0008604138781731e-01  5.0010678586206481e-01  5.0011482070942170e-01  5.0010983388937558e-01  5.0009457047225259e-01  5.0007300160923118e-01  5.0004873180256437e-01  5.0002442213420839e-01  5.0000145584029743e-01  4.9998074864785746e-01  4.9996190444582983e-01  4.9994579729514421e-01  4.9992993022639848e-01  4.9991679246181570e-01  4.9990189125735340e-01  4.9985798190640063e-01  4.9989142280926835e-01  4.9924752522967736e-01  5.0027716877469808e-01  4.9169055747338647e-01  5.0406419872834995e-01  4.6294335519249480e-01  3.5351727324298843e-01  1.0584005379141773e-03  2.4458048368761691e+00  -3.9403239929632621e-02  5.0395264718902300e-01  5.0168112266571863e-01  4.9178369811192008e-01  5.0054924553368063e-01  4.9958351750922669e-01  5.0015114987270748e-01  5.0013430240392931e-01  5.0014714549568728e-01  5.0013890932591187e-01  5.0012277667982019e-01  5.0010562868894126e-01  5.0008513910592245e-01  5.0006204458842840e-01  5.0003665836507294e-01  5.0000965329644720e-01  4.9998227282603408e-01  4.9995800443797206e-01  4.9993974398856866e-01  4.9993244823920152e-01  4.9994154180130218e-01  4.9996899761653085e-01  5.0001369442562782e-01  5.0006818617584514e-01  5.0011901850918228e-01  5.0015259787697897e-01  5.0016249450091765e-01  5.0015093612601258e-01  5.0012509592139542e-01  5.0009270820447504e-01  5.0005946660640821e-01  5.0002868146845392e-01  5.0000154922424400e-01  4.9997847505017728e-01  4.9995850957089993e-01  4.9994209678120460e-01  4.9992635643133093e-01  4.9991364806687033e-01  4.9989914778943212e-01  4.9985594934570532e-01  4.9989066316229547e-01  4.9924880763386748e-01  5.0029527067682722e-01  4.9169939259711537e-01  5.0412499455482118e-01  4.6291866123335007e-01  3.5368538001143235e-01  9.7526233661848413e-04  2.4472792643965446e+00  -3.9870170904746538e-02  5.0388278636342432e-01  5.0170975300054121e-01  4.9179863830209264e-01  5.0055622918672904e-01  4.9958089637751113e-01  5.0014789881954946e-01  5.0013474799894386e-01  5.0014728557605559e-01  5.0013962075928498e-01  5.0012470884827165e-01  5.0010689345746551e-01  5.0008473018511923e-01  5.0005807290841775e-01  5.0002693188499325e-01  4.9999092838588705e-01  4.9995159930075761e-01  4.9991384146653400e-01  4.9988042008992944e-01  4.9986398843464136e-01  4.9987484318995368e-01  4.9991755091229356e-01  4.9999549783961228e-01  5.0009387801752303e-01  5.0018187514476786e-01  5.0023159905096237e-01  5.0023608328082914e-01  5.0020656435417754e-01  5.0016009351397017e-01  5.0011034569895596e-01  5.0006496169325987e-01  5.0002687132507440e-01  4.9999601632737767e-01  4.9997156019981281e-01  4.9995158333547335e-01  4.9993588630792701e-01  4.9992117968854666e-01  4.9990962968894165e-01  4.9989623323986859e-01  4.9985429047118862e-01  4.9989083334159512e-01  4.9925143781966408e-01  5.0031306197881964e-01  4.9170983772315746e-01  5.0418032754384157e-01  4.6289970881340164e-01  3.5381663901240162e-01  9.1665432662463894e-04  2.4485367989486231e+00  -4.0293287872290549e-02  5.0383911600802833e-01  5.0173689760856088e-01  4.9181190009120551e-01  5.0056349874590989e-01  4.9958269658310916e-01  5.0014876381640838e-01  5.0013625232560233e-01  5.0014978303735547e-01  5.0014430652156316e-01  5.0013083888595711e-01  5.0011350671320598e-01  5.0009075482475474e-01  5.0006128072243816e-01  5.0002408298596179e-01  4.9997640145108119e-01  4.9992026921612270e-01  4.9985913926180936e-01  4.9979554702187845e-01  4.9976062983556563e-01  4.9976403151864107e-01  4.9982498814964499e-01  4.9996913062126613e-01  5.0015652185393500e-01  5.0030867153756919e-01  5.0036958928608655e-01  5.0034532786752728e-01  5.0027400405818001e-01  5.0019105879318160e-01  5.0011663771487669e-01  5.0005758003818468e-01  5.0001345931011709e-01  4.9998112448386511e-01  4.9995751080341083e-01  4.9993937575848890e-01  4.9992581315590706e-01  4.9991316810221675e-01  4.9990352560434081e-01  4.9989175578779221e-01  4.9985147692598869e-01  4.9988999904435283e-01  4.9925320072226592e-01  5.0032783289198213e-01  4.9171863189089388e-01  5.0422788364404836e-01  4.6288256866745880e-01  3.5392651531357067e-01  8.7085705949855815e-04  2.4495864437112114e+00  -4.0667286860085826e-02  5.0381367052426718e-01  5.0175936897270224e-01  4.9182314388831117e-01  5.0057214766792080e-01  4.9958691851531029e-01  5.0015153184386152e-01  5.0014034986418221e-01  5.0015621613355810e-01  5.0015344511727766e-01  5.0014249368843844e-01  5.0012759728434220e-01  5.0010645575123813e-01  5.0007666899648451e-01  5.0003503333445987e-01  4.9997533755545542e-01  4.9989884839846854e-01  4.9979876801967049e-01  4.9968245245031911e-01  4.9960674785760129e-01  4.9955783229622497e-01  4.9964237064432998e-01  4.9994584779931595e-01  5.0032502243116805e-01  5.0057529148510282e-01  5.0060302082189412e-01  5.0048770546284516e-01  5.0033193877105420e-01  5.0019469401755090e-01  5.0009373550994318e-01  5.0002573743918222e-01  4.9998189447949881e-01  4.9995356114496442e-01  4.9993493748115247e-01  4.9992154564964819e-01  4.9991207003261107e-01  4.9990278326800586e-01  4.9989589529803191e-01  4.9988632943999906e-01  4.9984806906503471e-01  4.9988871719041239e-01  4.9925449333738864e-01  5.0034009977941840e-01  4.9172611546781947e-01  5.0426844077522137e-01  4.6286810985946875e-01  3.5402225214919070e-01  8.3570047407139692e-04  2.4504358133387023e+00  -4.0987284654568044e-02  5.0380120221525138e-01  5.0177709216550526e-01  4.9183297504267087e-01  5.0058124101765622e-01  4.9959184371698950e-01  5.0015574157777332e-01  5.0014667049962336e-01  5.0016532346812093e-01  5.0016608419996966e-01  5.0015944992502626e-01  5.0014964708756227e-01  5.0013396939533450e-01  5.0010914114937310e-01  5.0006917492347769e-01  5.0000410815578034e-01  4.9990809568707950e-01  4.9975014652032390e-01  4.9955017795170137e-01  4.9935810573139988e-01  4.9912166017594489e-01  4.9929261713919593e-01  5.0001630507827399e-01  5.0079334540160769e-01  5.0112610495443533e-01  5.0093996891882953e-01  5.0059864975876955e-01  5.0031083941498344e-01  5.0012129971702102e-01  5.0001244176048010e-01  4.9995506904818027e-01  4.9992602031379185e-01  4.9991137282770104e-01  4.9990373613718764e-01  4.9989868524129177e-01  4.9989541612832272e-01  4.9989072007019436e-01  4.9988729405798943e-01  4.9988033335419607e-01  4.9984427644983681e-01  4.9988701775079325e-01  4.9925516456775604e-01  5.0034963376325980e-01  4.9173187540524238e-01  5.0430168425294930e-01  4.6285623162445361e-01  3.5410472768991713e-01  8.0804441490669923e-04  2.4510912307386494e+00  -4.1249063092155612e-02  5.0379770663661538e-01  5.0179054503612475e-01  4.9184144752274256e-01  5.0058982635356031e-01  4.9959678034733446e-01  5.0016081800151346e-01  5.0015402761029637e-01  5.0017575017383020e-01  5.0018093987507539e-01  5.0018025056676285e-01  5.0017835002851796e-01  5.0017302437817779e-01  5.0016097748702681e-01  5.0013483632354672e-01  5.0008086517126060e-01  4.9997654326971008e-01  4.9975566598157661e-01  4.9943061338464856e-01  4.9892306106226997e-01  4.9823302440775957e-01  4.9876964060312201e-01  5.0052380132456731e-01  5.0199876882690020e-01  5.0210313912748783e-01  5.0114919214120601e-01  5.0040191523269828e-01  5.0002622222423876e-01  4.9988114013836854e-01  4.9983696718943216e-01  4.9983401973105224e-01  4.9984444670058031e-01  4.9985643722251871e-01  4.9986642556164895e-01  4.9987305603784943e-01  4.9987763129901847e-01  4.9987830335618866e-01  4.9987866964699468e-01  4.9987442614195171e-01  4.9984052392562228e-01  4.9988515783909482e-01  4.9925531351631769e-01  5.0035647965067942e-01  4.9173590453038374e-01  5.0432746138288764e-01  4.6284741708034616e-01  3.5417287976188022e-01  7.8658891168205251e-04  2.4515576230681528e+00  -4.1448965047514517e-02  5.0380016731727773e-01  5.0180020705614736e-01  4.9184831639681076e-01  5.0059722956535979e-01  4.9960115312251324e-01  5.0016573873777614e-01  5.0016095056490806e-01  5.0018568527912954e-01  5.0019547322561086e-01  5.0020134748859657e-01  5.0020909120375090e-01  5.0021810169319114e-01  5.0022733388748730e-01  5.0023274360069503e-01  5.0022291373516470e-01  5.0016802972791030e-01  4.9998285559416933e-01  4.9960797333020862e-01  4.9862759582520455e-01  4.9718740592982369e-01  4.9853780908179324e-01  5.0218509401137579e-01  5.0458668501570247e-01  5.0339759929330985e-01  5.0021609571406678e-01  4.9907329477484136e-01  4.9910312551080860e-01  4.9933867279322758e-01  4.9953833368144762e-01  4.9966626413897552e-01  4.9974665402375584e-01  4.9979710366959490e-01  4.9982909047443425e-01  4.9984879691655193e-01  4.9986147834344336e-01  4.9986736599234610e-01  4.9987123583457860e-01  4.9986940593465357e-01  4.9983732358777100e-01  4.9988345032928078e-01  4.9925510016352836e-01  5.0036071030601603e-01  4.9173824079699524e-01  5.0434559109040833e-01  4.6284215167029519e-01  3.5422469782175475e-01  7.7051939471372872e-04  2.4518385821907795e+00  -4.1584119069572469e-02  5.0380634056053819e-01  5.0180644706523170e-01  4.9185334164268152e-01  5.0060298945898829e-01  4.9960435608091575e-01  5.0016942431722755e-01  5.0016596821753612e-01  5.0019297769735727e-01  5.0020635130053037e-01  5.0021764437288097e-01  5.0023402641375392e-01  5.0025728405938397e-01  5.0029112588453195e-01  5.0034097421639556e-01  5.0041246759672231e-01  5.0050473823886310e-01  5.0057020442829081e-01  5.0046921492380969e-01  4.9940723215814153e-01  4.9737511513139415e-01  4.9978981793188082e-01  5.0513452863124830e-01  5.0758510580076188e-01  5.0465087927040242e-01  4.9751247197836818e-01  4.9538025563275778e-01  4.9711721820851790e-01  4.9844574805883024e-01  4.9914761042082395e-01  4.9948890164139603e-01  4.9965842258859000e-01  4.9974906700701333e-01  4.9980087930766887e-01  4.9983128878424987e-01  4.9985017958584627e-01  4.9985988012327531e-01  4.9986622280519127e-01  4.9986604854613825e-01  4.9983516128630068e-01  4.9988219036701859e-01  4.9925468719484684e-01  5.0036239105333957e-01  4.9173893375835465e-01  5.0435590094374705e-01  4.6284083881026072e-01  3.5425821791553053e-01  7.5943229381928465e-04  2.4519363743999856e+00  -4.1652776899823732e-02  5.0381475389345176e-01  5.0180952197220907e-01  4.9185636067014171e-01  5.0060679421031518e-01  4.9960591089685441e-01  5.0017107021476803e-01  5.0016793177715380e-01  5.0019578582772894e-01  5.0021056991516388e-01  5.0022408749639813e-01  5.0024422689367098e-01  5.0027408473504875e-01  5.0032022310707791e-01  5.0039383212213318e-01  5.0051192168674563e-01  5.0069376694117862e-01  5.0091801525835233e-01  5.0100278384822927e-01  5.0017527742479151e-01  4.9814212562589422e-01  5.0102900391632155e-01  5.0725400461675407e-01  5.0852602489325571e-01  5.0515256612656712e-01  4.9552213085505215e-01  4.9221179736717080e-01  4.9511711767153849e-01  4.9773622134524348e-01  4.9890850061773750e-01  4.9940569266800616e-01  4.9962402285148266e-01  4.9973205064425552e-01  4.9979126556909187e-01  4.9982541096921584e-01  4.9984640082186854e-01  4.9985738405102864e-01  4.9986454903711119e-01  4.9986491771641040e-01  4.9983438548649961e-01  4.9988158566453755e-01  4.9925419328063769e-01  5.0036155410642813e-01  4.9173800483984265e-01  5.