<?xml version="1.0"?>
<VTKFile type="UnstructuredGrid"  version="0.1"  >
<UnstructuredGrid>
<Piece  NumberOfPoints="1617" NumberOfCells="3072">
<Points>
<DataArray  type="Float64"  NumberOfComponents="3"  format="ascii">0 0 0  0.03125 0 0  0.0625 0 0  0.09375 0 0  0.125 0 0  0.15625 0 0  0.1875 0 0  0.21875 0 0  0.25 0 0  0.28125 0 0  0.3125 0 0  0.34375 0 0  0.375 0 0  0.40625 0 0  0.4375 0 0  0.46875 0 0  0.5 0 0  0.53125 0 0  0.5625 0 0  0.59375 0 0  0.625 0 0  0.65625 0 0  0.6875 0 0  0.71875 0 0  0.75 0 0  0.78125 0 0  0.8125 0 0  0.84375 0 0  0.875 0 0  0.90625 0 0  0.9375 0 0  0.96875 0 0  1 0 0  1.03125 0 0  1.0625 0 0  1.09375 0 0  1.125 0 0  1.15625 0 0  1.1875 0 0  1.21875 0 0  1.25 0 0  1.28125 0 0  1.3125 0 0  1.34375 0 0  1.375 0 0  1.40625 0 0  1.4375 0 0  1.46875 0 0  1.5 0 0  0 0.03125 0  0.03125 0.03125 0  0.0625 0.03125 0  0.09375 0.03125 0  0.125 0.03125 0  0.15625 0.03125 0  0.1875 0.03125 0  0.21875 0.03125 0  0.25 0.03125 0  0.28125 0.03125 0  0.3125 0.03125 0  0.34375 0.03125 0  0.375 0.03125 0  0.40625 0.03125 0  0.4375 0.03125 0  0.46875 0.03125 0  0.5 0.03125 0  0.53125 0.03125 0  0.5625 0.03125 0  0.59375 0.03125 0  0.625 0.03125 0  0.65625 0.03125 0  0.6875 0.03125 0  0.71875 0.03125 0  0.75 0.03125 0  0.78125 0.03125 0  0.8125 0.03125 0  0.84375 0.03125 0  0.875 0.03125 0  0.90625 0.03125 0  0.9375 0.03125 0  0.96875 0.03125 0  1 0.03125 0  1.03125 0.03125 0  1.0625 0.03125 0  1.09375 0.03125 0  1.125 0.03125 0  1.15625 0.03125 0  1.1875 0.03125 0  1.21875 0.03125 0  1.25 0.03125 0  1.28125 0.03125 0  1.3125 0.03125 0  1.34375 0.03125 0  1.375 0.03125 0  1.40625 0.03125 0  1.4375 0.03125 0  1.46875 0.03125 0  1.5 0.03125 0  0 0.0625 0  0.03125 0.0625 0  0.0625 0.0625 0  0.09375 0.0625 0  0.125 0.0625 0  0.15625 0.0625 0  0.1875 0.0625 0  0.21875 0.0625 0  0.25 0.0625 0  0.28125 0.0625 0  0.3125 0.0625 0  0.34375 0.0625 0  0.375 0.0625 0  0.40625 0.0625 0  0.4375 0.0625 0  0.46875 0.0625 0  0.5 0.0625 0  0.53125 0.0625 0  0.5625 0.0625 0  0.59375 0.0625 0  0.625 0.0625 0  0.65625 0.0625 0  0.6875 0.0625 0  0.71875 0.0625 0  0.75 0.0625 0  0.78125 0.0625 0  0.8125 0.0625 0  0.84375 0.0625 0  0.875 0.0625 0  0.90625 0.0625 0  0.9375 0.0625 0  0.96875 0.0625 0  1 0.0625 0  1.03125 0.0625 0  1.0625 0.0625 0  1.09375 0.0625 0  1.125 0.0625 0  1.15625 0.0625 0  1.1875 0.0625 0  1.21875 0.0625 0  1.25 0.0625 0  1.28125 0.0625 0  1.3125 0.0625 0  1.34375 0.0625 0  1.375 0.0625 0  1.40625 0.0625 0  1.4375 0.0625 0  1.46875 0.0625 0  1.5 0.0625 0  0 0.09375 0  0.03125 0.09375 0  0.0625 0.09375 0  0.09375 0.09375 0  0.125 0.09375 0  0.15625 0.09375 0  0.1875 0.09375 0  0.21875 0.09375 0  0.25 0.09375 0  0.28125 0.09375 0  0.3125 0.09375 0  0.34375 0.09375 0  0.375 0.09375 0  0.40625 0.09375 0  0.4375 0.09375 0  0.46875 0.09375 0  0.5 0.09375 0  0.53125 0.09375 0  0.5625 0.09375 0  0.59375 0.09375 0  0.625 0.09375 0  0.65625 0.09375 0  0.6875 0.09375 0  0.71875 0.09375 0  0.75 0.09375 0  0.78125 0.09375 0  0.8125 0.09375 0  0.84375 0.09375 0  0.875 0.09375 0  0.90625 0.09375 0  0.9375 0.09375 0  0.96875 0.09375 0  1 0.09375 0  1.03125 0.09375 0  1.0625 0.09375 0  1.09375 0.09375 0  1.125 0.09375 0  1.15625 0.09375 0  1.1875 0.09375 0  1.21875 0.09375 0  1.25 0.09375 0  1.28125 0.09375 0  1.3125 0.09375 0  1.34375 0.09375 0  1.375 0.09375 0  1.40625 0.09375 0  1.4375 0.09375 0  1.46875 0.09375 0  1.5 0.09375 0  0 0.125 0  0.03125 0.125 0  0.0625 0.125 0  0.09375 0.125 0  0.125 0.125 0  0.15625 0.125 0  0.1875 0.125 0  0.21875 0.125 0  0.25 0.125 0  0.28125 0.125 0  0.3125 0.125 0  0.34375 0.125 0  0.375 0.125 0  0.40625 0.125 0  0.4375 0.125 0  0.46875 0.125 0  0.5 0.125 0  0.53125 0.125 0  0.5625 0.125 0  0.59375 0.125 0  0.625 0.125 0  0.65625 0.125 0  0.6875 0.125 0  0.71875 0.125 0  0.75 0.125 0  0.78125 0.125 0  0.8125 0.125 0  0.84375 0.125 0  0.875 0.125 0  0.90625 0.125 0  0.9375 0.125 0  0.96875 0.125 0  1 0.125 0  1.03125 0.125 0  1.0625 0.125 0  1.09375 0.125 0  1.125 0.125 0  1.15625 0.125 0  1.1875 0.125 0  1.21875 0.125 0  1.25 0.125 0  1.28125 0.125 0  1.3125 0.125 0  1.34375 0.125 0  1.375 0.125 0  1.40625 0.125 0  1.4375 0.125 0  1.46875 0.125 0  1.5 0.125 0  0 0.15625 0  0.03125 0.15625 0  0.0625 0.15625 0  0.09375 0.15625 0  0.125 0.15625 0  0.15625 0.15625 0  0.1875 0.15625 0  0.21875 0.15625 0  0.25 0.15625 0  0.28125 0.15625 0  0.3125 0.15625 0  0.34375 0.15625 0  0.375 0.15625 0  0.40625 0.15625 0  0.4375 0.15625 0  0.46875 0.15625 0  0.5 0.15625 0  0.53125 0.15625 0  0.5625 0.15625 0  0.59375 0.15625 0  0.625 0.15625 0  0.65625 0.15625 0  0.6875 0.15625 0  0.71875 0.15625 0  0.75 0.15625 0  0.78125 0.15625 0  0.8125 0.15625 0  0.84375 0.15625 0  0.875 0.15625 0  0.90625 0.15625 0  0.9375 0.15625 0  0.96875 0.15625 0  1 0.15625 0  1.03125 0.15625 0  1.0625 0.15625 0  1.09375 0.15625 0  1.125 0.15625 0  1.15625 0.15625 0  1.1875 0.15625 0  1.21875 0.15625 0  1.25 0.15625 0  1.28125 0.15625 0  1.3125 0.15625 0  1.34375 0.15625 0  1.375 0.15625 0  1.40625 0.15625 0  1.4375 0.15625 0  1.46875 0.15625 0  1.5 0.15625 0  0 0.1875 0  0.03125 0.1875 0  0.0625 0.1875 0  0.09375 0.1875 0  0.125 0.1875 0  0.15625 0.1875 0  0.1875 0.1875 0  0.21875 0.1875 0  0.25 0.1875 0  0.28125 0.1875 0  0.3125 0.1875 0  0.34375 0.1875 0  0.375 0.1875 0  0.40625 0.1875 0  0.4375 0.1875 0  0.46875 0.1875 0  0.5 0.1875 0  0.53125 0.1875 0  0.5625 0.1875 0  0.59375 0.1875 0  0.625 0.1875 0  0.65625 0.1875 0  0.6875 0.1875 0  0.71875 0.1875 0  0.75 0.1875 0  0.78125 0.1875 0  0.8125 0.1875 0  0.84375 0.1875 0  0.875 0.1875 0  0.90625 0.1875 0  0.9375 0.1875 0  0.96875 0.1875 0  1 0.1875 0  1.03125 0.1875 0  1.0625 0.1875 0  1.09375 0.1875 0  1.125 0.1875 0  1.15625 0.1875 0  1.1875 0.1875 0  1.21875 0.1875 0  1.25 0.1875 0  1.28125 0.1875 0  1.3125 0.1875 0  1.34375 0.1875 0  1.375 0.1875 0  1.40625 0.1875 0  1.4375 0.1875 0  1.46875 0.1875 0  1.5 0.1875 0  0 0.21875 0  0.03125 0.21875 0  0.0625 0.21875 0  0.09375 0.21875 0  0.125 0.21875 0  0.15625 0.21875 0  0.1875 0.21875 0  0.21875 0.21875 0  0.25 0.21875 0  0.28125 0.21875 0  0.3125 0.21875 0  0.34375 0.21875 0  0.375 0.21875 0  0.40625 0.21875 0  0.4375 0.21875 0  0.46875 0.21875 0  0.5 0.21875 0  0.53125 0.21875 0  0.5625 0.21875 0  0.59375 0.21875 0  0.625 0.21875 0  0.65625 0.21875 0  0.6875 0.21875 0  0.71875 0.21875 0  0.75 0.21875 0  0.78125 0.21875 0  0.8125 0.21875 0  0.84375 0.21875 0  0.875 0.21875 0  0.90625 0.21875 0  0.9375 0.21875 0  0.96875 0.21875 0  1 0.21875 0  1.03125 0.21875 0  1.0625 0.21875 0  1.09375 0.21875 0  1.125 0.21875 0  1.15625 0.21875 0  1.1875 0.21875 0  1.21875 0.21875 0  1.25 0.21875 0  1.28125 0.21875 0  1.3125 0.21875 0  1.34375 0.21875 0  1.375 0.21875 0  1.40625 0.21875 0  1.4375 0.21875 0  1.46875 0.21875 0  1.5 0.21875 0  0 0.25 0  0.03125 0.25 0  0.0625 0.25 0  0.09375 0.25 0  0.125 0.25 0  0.15625 0.25 0  0.1875 0.25 0  0.21875 0.25 0  0.25 0.25 0  0.28125 0.25 0  0.3125 0.25 0  0.34375 0.25 0  0.375 0.25 0  0.40625 0.25 0  0.4375 0.25 0  0.46875 0.25 0  0.5 0.25 0  0.53125 0.25 0  0.5625 0.25 0  0.59375 0.25 0  0.625 0.25 0  0.65625 0.25 0  0.6875 0.25 0  0.71875 0.25 0  0.75 0.25 0  0.78125 0.25 0  0.8125 0.25 0  0.84375 0.25 0  0.875 0.25 0  0.90625 0.25 0  0.9375 0.25 0  0.96875 0.25 0  1 0.25 0  1.03125 0.25 0  1.0625 0.25 0  1.09375 0.25 0  1.125 0.25 0  1.15625 0.25 0  1.1875 0.25 0  1.21875 0.25 0  1.25 0.25 0  1.28125 0.25 0  1.3125 0.25 0  1.34375 0.25 0  1.375 0.25 0  1.40625 0.25 0  1.4375 0.25 0  1.46875 0.25 0  1.5 0.25 0  0 0.28125 0  0.03125 0.28125 0  0.0625 0.28125 0  0.09375 0.28125 0  0.125 0.28125 0  0.15625 0.28125 0  0.1875 0.28125 0  0.21875 0.28125 0  0.25 0.28125 0  0.28125 0.28125 0  0.3125 0.28125 0  0.34375 0.28125 0  0.375 0.28125 0  0.40625 0.28125 0  0.4375 0.28125 0  0.46875 0.28125 0  0.5 0.28125 0  0.53125 0.28125 0  0.5625 0.28125 0  0.59375 0.28125 0  0.625 0.28125 0  0.65625 0.28125 0  0.6875 0.28125 0  0.71875 0.28125 0  0.75 0.28125 0  0.78125 0.28125 0  0.8125 0.28125 0  0.84375 0.28125 0  0.875 0.28125 0  0.90625 0.28125 0  0.9375 0.28125 0  0.96875 0.28125 0  1 0.28125 0  1.03125 0.28125 0  1.0625 0.28125 0  1.09375 0.28125 0  1.125 0.28125 0  1.15625 0.28125 0  1.1875 0.28125 0  1.21875 0.28125 0  1.25 0.28125 0  1.28125 0.28125 0  1.3125 0.28125 0  1.34375 0.28125 0  1.375 0.28125 0  1.40625 0.28125 0  1.4375 0.28125 0  1.46875 0.28125 0  1.5 0.28125 0  0 0.3125 0  0.03125 0.3125 0  0.0625 0.3125 0  0.09375 0.3125 0  0.125 0.3125 0  0.15625 0.3125 0  0.1875 0.3125 0  0.21875 0.3125 0  0.25 0.3125 0  0.28125 0.3125 0  0.3125 0.3125 0  0.34375 0.3125 0  0.375 0.3125 0  0.40625 0.3125 0  0.4375 0.3125 0  0.46875 0.3125 0  0.5 0.3125 0  0.53125 0.3125 0  0.5625 0.3125 0  0.59375 0.3125 0  0.625 0.3125 0  0.65625 0.3125 0  0.6875 0.3125 0  0.71875 0.3125 0  0.75 0.3125 0  0.78125 0.3125 0  0.8125 0.3125 0  0.84375 0.3125 0  0.875 0.3125 0  0.90625 0.3125 0  0.9375 0.3125 0  0.96875 0.3125 0  1 0.3125 0  1.03125 0.3125 0  1.0625 0.3125 0  1.09375 0.3125 0  1.125 0.3125 0  1.15625 0.3125 0  1.1875 0.3125 0  1.21875 0.3125 0  1.25 0.3125 0  1.28125 0.3125 0  1.3125 0.3125 0  1.34375 0.3125 0  1.375 0.3125 0  1.40625 0.3125 0  1.4375 0.3125 0  1.46875 0.3125 0  1.5 0.3125 0  0 0.34375 0  0.03125 0.34375 0  0.0625 0.34375 0  0.09375 0.34375 0  0.125 0.34375 0  0.15625 0.34375 0  0.1875 0.34375 0  0.21875 0.34375 0  0.25 0.34375 0  0.28125 0.34375 0  0.3125 0.34375 0  0.34375 0.34375 0  0.375 0.34375 0  0.40625 0.34375 0  0.4375 0.34375 0  0.46875 0.34375 0  0.5 0.34375 0  0.53125 0.34375 0  0.5625 0.34375 0  0.59375 0.34375 0  0.625 0.34375 0  0.65625 0.34375 0  0.6875 0.34375 0  0.71875 0.34375 0  0.75 0.34375 0  0.78125 0.34375 0  0.8125 0.34375 0  0.84375 0.34375 0  0.875 0.34375 0  0.90625 0.34375 0  0.9375 0.34375 0  0.96875 0.34375 0  1 0.34375 0  1.03125 0.34375 0  1.0625 0.34375 0  1.09375 0.34375 0  1.125 0.34375 0  1.15625 0.34375 0  1.1875 0.34375 0  1.21875 0.34375 0  1.25 0.34375 0  1.28125 0.34375 0  1.3125 0.34375 0  1.34375 0.34375 0  1.375 0.34375 0  1
[...]
<PointData  Scalars="f_65"> 
<DataArray  type="Float64"  Name="f_65"  format="ascii">7.8914326165056325e-01  7.0187561389322717e-01  6.4754388745596625e-01  6.7393010672782727e-01  6.8329209478374964e-01  6.8016858584073758e-01  6.7252441734159740e-01  6.6326447428137447e-01  6.5358712240816497e-01  6.4391154798341410e-01  6.3436523232452624e-01  6.2498084310308344e-01  6.1576329195435575e-01  6.0670905485708904e-01  5.9781165887330456e-01  5.8906325342702182e-01  5.8045504283130445e-01  5.7197739713827056e-01  5.6361988572714916e-01  5.5537134349232309e-01  5.4722003952776588e-01  5.3915399945792974e-01  5.3116151021497326e-01  5.2323179735150915e-01  5.1535581326000934e-01  5.0752702031493413e-01  4.9974202052611705e-01  4.9200088328941693e-01  4.8430708550326806e-01  4.7666703718201864e-01  4.6908932583639584e-01  4.6158370525789044e-01  4.5416031344787583e-01  4.4682844788771581e-01  4.3959706925119646e-01  4.3247169447117817e-01  4.2546131821869904e-01  4.1856031854601283e-01  4.1179353585611300e-01  4.0509909494402641e-01  3.9861585233898306e-01  3.9190879360759129e-01  3.8587789143011009e-01  3.7775980318985636e-01  3.6841546099826206e-01  3.7323916380923611e-01  2.2055952543476104e-01  3.4853301595222125e-01  3.2342516461635429e-01  6.6609668546619349e-01  5.0720292068075779e-01  3.8932312946067010e-01  4.2757815217897382e-01  4.5525976833986553e-01  4.6397345551120173e-01  4.6801543871331797e-01  4.7063022812662286e-01  4.7280149008109196e-01  4.7483600508526630e-01  4.7680851243633698e-01  4.7873341574834632e-01  4.8061392302755113e-01  4.8245175311827948e-01  4.8424880566066103e-01  4.8600734438638971e-01  4.8772997537844759e-01  4.8941953897720597e-01  4.9107892619588889e-01  4.9271082727553495e-01  4.9431743523963162e-01  4.9590015071337712e-01  4.9745934882227799e-01  4.9899427125845508e-01  5.0050308937225518e-01  5.0198314702104474e-01  5.0343134528038458e-01  5.0484458965776091e-01  5.0622020725543038e-01  5.0755624832242918e-01  5.0885164691917339e-01  5.1010620353025338e-01  5.1132053389851173e-01  5.1249575165383465e-01  5.1363365759009816e-01  5.1473556805153364e-01  5.1580459715361615e-01  5.1683892999876746e-01  5.1784711143003492e-01  5.1880439238956355e-01  5.1974679228670573e-01  5.2049749181660487e-01  5.2115606018557170e-01  5.2063214982345296e-01  5.1756782259178191e-01  5.2144234851890425e-01  4.1636565393754033e-01  5.0187677048549895e-01  6.0574462498236714e-01  6.9525940082570814e-01  5.6780223598881063e-01  4.2101039781685551e-01  4.6932727228462445e-01  4.9953957077389149e-01  5.0410575844805960e-01  5.0503779589390696e-01  5.0510249370013549e-01  5.0489030381882738e-01  5.0463295044035150e-01  5.0437661489663221e-01  5.0412537251563305e-01  5.0387832726588866e-01  5.0363490389547083e-01  5.0339477246830155e-01  5.0315761706416551e-01  5.0292304956350387e-01  5.0269056529186296e-01  5.0245952402417682e-01  5.0222914598652468e-01  5.0199852431790493e-01  5.0176665798172226e-01  5.0153250371104652e-01  5.0129504294944582e-01  5.0105335820369146e-01  5.0080671248085085e-01  5.0055462411442153e-01  5.0029692028386963e-01  5.0003375605138434e-01  4.9976557531862326e-01  4.9949304809828349e-01  4.9921693194159272e-01  4.9893806975940569e-01  4.9865707346213189e-01  4.9837490573604587e-01  4.9809127826900257e-01  4.9780870194818400e-01  4.9752212258423156e-01  4.9724468636442193e-01  4.9694020963684976e-01  4.9668356497779198e-01  4.9622684518208487e-01  4.9592207124281307e-01  4.9429153975436885e-01  4.9136530782656790e-01  4.9237331758210173e-01  3.9684526981083273e-01  5.0439345020769555e-01  5.4017044594981922e-01  6.9721579986069704e-01  5.6206277824415030e-01  4.1115507749081037e-01  4.6572673159057681e-01  4.9358103564417505e-01  4.9633640065134588e-01  4.9756029826761350e-01  4.9811703244442734e-01  4.9834069414197640e-01  4.9849339224649625e-01  4.9862787265785191e-01  4.9875413838813393e-01  4.9887449871241685e-01  4.9898990113472247e-01  4.9910073245513342e-01  4.9920724342635170e-01  4.9930963623932106e-01  4.9940805228117791e-01  4.9950252912888876e-01  4.9959295097948536e-01  4.9967899776147118e-01  4.9976011285846955e-01  4.9983549935019389e-01  4.9990415938838201e-01  4.9996498961084523e-01  5.0001693600226393e-01  5.0005918696575413e-01  5.0009134922748610e-01  5.0011354174509604e-01  5.0012635675480255e-01  5.0013072584786367e-01  5.0012769141373703e-01  5.0011830680394098e-01  5.0010330421461957e-01  5.0008358548752163e-01  5.0005882280665148e-01  5.0003105150839633e-01  4.9999554642787669e-01  4.9996347497769333e-01  4.9990272986692086e-01  4.9987667755103471e-01  4.9967032430534775e-01  4.9956734252026813e-01  4.9826269218088343e-01  4.9562198037646826e-01  4.9808335624988709e-01  4.0182151658506937e-01  5.0987569298076940e-01  5.5620684620906091e-01  6.9991553061933309e-01  5.6534208354215776e-01  4.1520818761079109e-01  4.7074201806130872e-01  4.9600179069269135e-01  4.9848844604585690e-01  4.9989659321940533e-01  5.0035929851967420e-01  5.0042289787907934e-01  5.0041363824845408e-01  5.0038652686613294e-01  5.0035750667652890e-01  5.0033050313789329e-01  5.0030649969441654e-01  5.0028568116416661e-01  5.0026819605387229e-01  5.0025420837180545e-01  5.0024383018794405e-01  5.0023705257483431e-01  5.0023366323045604e-01  5.0023315183401484e-01  5.0023465726088190e-01  5.0023694531811080e-01  5.0023845464602046e-01  5.0023744273775328e-01  5.0023225173853481e-01  5.0022166037502758e-01  5.0020520868334994e-01  5.0018334769483919e-01  5.0015731965028853e-01  5.0012885105604399e-01  5.0009973672545749e-01  5.0007162114093728e-01  5.0004560089231098e-01  5.0002276346615648e-01  5.0000274415080570e-01  4.9998756981849224e-01  4.9997206405233835e-01  4.9996779169896743e-01  4.9994058272383257e-01  4.9995780478087970e-01  4.9979402885147645e-01  4.9975422966956612e-01  4.9852341734857852e-01  4.9593968915380932e-01  4.9859409596384419e-01  4.0283580030970362e-01  5.1361915080831244e-01  5.6079022189050409e-01  7.0094536423743536e-01  5.6594786601283942e-01  4.1552892477991016e-01  4.7057280765681841e-01  4.9508408403138920e-01  4.9799861939028472e-01  4.9948980577468211e-01  4.9995245002762240e-01  5.0004893807622852e-01  5.0007406278353206e-01  5.0007410958661935e-01  5.0007069350694555e-01  5.0006815102472979e-01  5.0006761329941707e-01  5.0006949118262978e-01  5.0007420468940278e-01  5.0008219573784873e-01  5.0009385658519245e-01  5.0010948295725699e-01  5.0012908751525920e-01  5.0015221640965235e-01  5.0017783521518200e-01  5.0020418794504384e-01  5.0022880270816372e-01  5.0024870924722187e-01  5.0026094208228233e-01  5.0026327365836454e-01  5.0025491176258141e-01  5.0023677680504164e-01  5.0021117836949680e-01  5.0018111894943762e-01  5.0014952672673874e-01  5.0011884310612242e-01  5.0009060172283826e-01  5.0006602611373085e-01  5.0004470668010870e-01  5.0002848888893592e-01  5.0001203044797427e-01  5.0000652430053749e-01  4.9997791479884518e-01  4.9999204895270710e-01  4.9982768287479545e-01  4.9977802304860475e-01  4.9856949001031098e-01  4.9593807033300724e-01  4.9869905943987047e-01  4.0274722126644957e-01  5.1433212710575493e-01  5.6135132405258159e-01  7.0166579994761391e-01  5.6636085157615335e-01  4.1554925084420585e-01  4.7038658755070656e-01  4.9491637310225106e-01  4.9801897364159420e-01  4.9943875563139456e-01  4.9990991711463850e-01  5.0002835105217203e-01  5.0006196161333283e-01  5.0006424078828438e-01  5.0006227076959153e-01  5.0006011576165244e-01  5.0005956969472742e-01  5.0006144736880453e-01  5.0006650034019795e-01  5.0007546353507570e-01  5.0008915335784365e-01  5.0010837762929727e-01  5.0013352677142553e-01  5.0016439087567977e-01  5.0019989420262356e-01  5.0023760657265959e-01  5.0027366852135369e-01  5.0030307054919232e-01  5.0032058158496706e-01  5.0032228769760956e-01  5.0030709524457939e-01  5.0027715695888286e-01  5.0023693048191065e-01  5.0019161064669559e-01  5.0014575279770124e-01  5.0010267388233054e-01  5.0006413781217474e-01  5.0003118604437768e-01  5.0000300754550786e-01  4.9998101438710885e-01  4.9995938888519331e-01  4.9994904725833805e-01  4.9991542241035936e-01  4.9992462766848239e-01  4.9975546839465723e-01  4.9970129363042320e-01  4.9850443743000766e-01  4.9584290438426493e-01  4.9866619135586537e-01  4.0253965853476514e-01  5.1492909546647536e-01  5.6121528788557340e-01  7.0223117346242980e-01  5.6663113083343286e-01  4.1549937068216947e-01  4.7030654067563549e-01  4.9489046762311445e-01  4.9803023398090507e-01  4.9941345237725848e-01  4.9990580311454935e-01  5.0002827228267732e-01  5.0006050019798065e-01  5.0006143238843870e-01  5.0005790188586630e-01  5.0005333940801933e-01  5.0005017207718616e-01  5.0004953506699745e-01  5.0005240478090351e-01  5.0005990189625882e-01  5.0007367055818319e-01  5.0009530278685743e-01  5.0012597816394455e-01  5.0016645298296769e-01  5.0021611169161118e-01  5.0027169421031281e-01  5.0032717574539054e-01  5.0037384117860617e-01  5.0040198454739748e-01  5.0040440993491331e-01  5.0037991747240029e-01  5.0033369056932586e-01  5.0027451911351117e-01  5.0021133005043927e-01  5.0015090780610527e-01  5.0009733598772965e-01  5.0005216469336933e-01  5.0001574540158666e-01  4.9998645967351474e-01  4.9996498051405391e-01  4.9994489299757755e-01  4.9993667548478665e-01  4.9990546524368451e-01  4.9991722706943442e-01  4.9975191335384794e-01  4.9970112365373337e-01  4.9852392844159277e-01  4.9584543621752297e-01  4.9872550766423790e-01  4.0242741158509265e-01  5.1542440042911464e-01  5.6135709939820577e-01  7.0269879127430135e-01  5.6684369484292685e-01  4.1544251882589445e-01  4.7023433084076410e-01  4.9484855078244211e-01  4.9801635026914404e-01  4.9939145451843736e-01  4.9988931139661175e-01  5.0000751296776214e-01  5.0004009907665115e-01  5.0004168393203074e-01  5.0003776177011827e-01  5.0003199279412291e-01  5.0002699241791437e-01  5.0002435389614230e-01  5.0002473268132319e-01  5.0003020440942914e-01  5.0004339689492550e-01  5.0006667502851776e-01  5.0010326530800742e-01  5.0015637952271730e-01  5.0022677866432252e-01  5.0031034207455194e-01  5.0039802400867173e-01  5.0047407752145523e-01  5.0051916678322017e-01  5.0051943194709103e-01  5.0047508566480736e-01  5.0039906861192529e-01  5.0030887353355047e-01  5.0021932967003624e-01  5.0013959967982302e-01  5.0007363307514940e-01  5.0002163764150753e-01  4.9998234450982598e-01  4.9995270535190323e-01  4.9993231400704119e-01  4.9991399974795681e-01  4.9990779357489312e-01  4.9987853639230351e-01  4.9989223096811919e-01  4.9972958641449922e-01  4.9968165490466754e-01  4.9851936903482064e-01  4.9582746662102889e-01  4.9875196887022272e-01  4.0229839530965800e-01  5.1581035143515486e-01  5.6134530472685562e-01  7.0308156334535010e-01  5.6701299680921868e-01  4.1539129760119031e-01  4.7017767717728948e-01  4.9481952386137790e-01  4.9801668735425325e-01  4.9938320166079653e-01  4.9987724877829826e-01  4.9999240723577471e-01  5.0002555884908573e-01  5.0002631092676120e-01  5.0002072991572666e-01  5.0001264370116905e-01  5.0000429330252916e-01  4.9999797379704108e-01  4.9999262609866801e-01  4.9999331967555810e-01  5.0000132327512736e-01  5.0002122759448553e-01  5.0006115502084270e-01  5.0012814294558650e-01  5.0022677832349882e-01  5.0035323508785312e-01  5.0049621466944272e-01  5.0062525273422387e-01  5.0069746769333112e-01  5.0068537628384968e-01  5.0059785280817504e-01  5.0046777952736177e-01  5.0032911560642312e-01  5.0020429609903605e-01  5.0010306849001307e-01  5.0002657237102721e-01  4.9997146895598632e-01  4.9993347513507741e-01  4.9990740050443172e-01  4.9989147909794540e-01  4.9987775820627334e-01  4.9987587477662360e-01  4.9985051334052111e-01  4.9986776922829051e-01  4.9970909747148434e-01  4.9966534404051738e-01  4.9851642399208634e-01  4.9581634349740283e-01  4.9877652674623002e-01  4.0219031656039478e-01  5.1613494352810407e-01  5.6131623047848578e-01  7.0339026483909384e-01  5.6714738377564300e-01  4.1534583501518180e-01  4.7013145736174405e-01  4.9479704731400426e-01  4.9801872176162149e-01  4.9937566535038974e-01  4.9986598643064512e-01  4.9997949580957024e-01  5.0001200329616080e-01  5.0001115294933018e-01  5.0000364935583608e-01  4.9999275779358060e-01  4.9998024666254742e-01  4.9996881490499329e-01  4.9995413587412307e-01  4.9994801399918976e-01  4.9994120193473163e-01  4.9995158101354314e-01  4.9998832316414721e-01  5.0006485237312959e-01  5.0019882353916090e-01  5.0039090675339726e-01  5.0063899730551498e-01  5.0087341347145820e-01  5.0098618265982819e-01  5.0092699886152015e-01  5.0074346259382740e-01  5.0051718969851267e-01  5.0030804505633109e-01  5.0014251343479610e-01  5.0002385339900601e-01  4.9994465910179547e-01  4.9989470124589941e-01  4.9986518736918673e-01  4.9984836937792998e-01  4.9984120527207060e-01  4.9983521979383261e-01  4.9983993223954049e-01  4.9982010652904424e-01  4.9984211242530069e-01  4.9968808601442338e-01  4.9964914129748006e-01  4.9851152491788042e-01  4.9580709817002749e-01  4.9879493445539769e-01  4.0209888788129011e-01  5.1640536601980547e-01  5.6127564411677633e-01  7.0363445464045371e-01  5.6725240224986340e-01  4.1530595240549512e-01  4.7009331734924087e-01  4.9477823531943682e-01  4.9802021246228739e-01  4.9936909058205986e-01  4.9985656143606827e-01  4.9996828013349925e-01  4.9999958090507846e-01  4.9999725599549205e-01  4.9998789718602843e-01  4.9997403641108662e-01  4.9995718541266093e-01  4.9993931321709650e-01  4.9991306172544969e-01  4.9989827418821636e-01  4.9985883236513023e-01  4.9985848998315968e-01  4.9986222478896536e-01  4.9992967723238213e-01  5.0009679797321460e-01  5.0038980125964594e-01  5.0087579414518280e-01  5.0133506563464347e-01  5.0147944787626597e-01  5.0125864508675333e-01  5.0086560665428592e-01  5.0048271617274820e-01  5.0018962352043095e-01  4.9999490049592099e-01  4.9987839723516897e-01  4.9981541821521558e-01  4.9978572199770299e-01  4.9977570393166326e-01  4.9977577101656456e-01  4.9978249700339827e-01  4.9978765042694495e-01  4.9980119630388437e-01  4.9978837424569605e-01  4.9981607883636825e-01  4.9966713607183072e-01  4.9963331248342757e-01  4.9850501968756111e-01  4.9579932989327691e-01  4.9880747848468598e-01  4.0202456858201990e-01  5.1662755049292652e-01  5.6123331643486640e-01  7.0382239403096347e-01  5.6733232362209296e-01  4.1527145104835811e-01  4.7006211522590929e-01  4.9476264711026213e-01  4.9802152843542874e-01  4.9936388797985648e-01  4.9984891949313909e-01  4.9995891654949920e-01  4.9998920669293306e-01  4.9998574712907823e-01  4.9997484747758714e-01  4.9995852784447098e-01  4.9993814614618004e-01  4.9991378290599142e-01  4.9987727750943672e-01  4.9984847945963717e-01  4.9975727094684091e-01  4.9975482013160405e-01  4.9962656513381493e-01  4.9967234259108639e-01  4.9980141428701808e-01  5.0028815776978874e-01  5.0141124414889893e-01  5.0229708204336487e-01  5.0229587194589920e-01  5.0157930141318352e-01  5.0077869706454292e-01  5.0020448873378331e-01  4.9987068607365881e-01  4.9970595104481985e-01  4.9964142817680068e-01  4.9963000056468543e-01  4.9964357266186799e-01  4.9966732260939450e-01  4.9969288891263597e-01  4.9971861954243435e-01  4.9973791385378941e-01  4.9976203507252104e-01  4.9975720176417238e-01  4.9979113460824898e-01  4.9964736048900293e-01  4.9961863054157668e-01  4.9849769902833035e-01  4.9579308338848094e-01  4.9881491092922031e-01  4.0196752025881993e-01  5.1680498171326306e-01  5.6119587608046761e-01  7.0396115250394475e-01  5.6739055450720988e-01  4.1524242095307623e-01  4.7003768033006138e-01  4.9475053951869630e-01  4.9802286449914740e-01  4.9935995644142828e-01  4.9984298379750153e-01  4.9995161702382807e-01  4.9998122365485170e-01  4.9997704648544522e-01  4.9996528974607091e-01  4.9994773672527337e-01  4.9992565683356815e-01  4.9989723688129101e-01  4.9985535021188038e-01  4.9980719970808263e-01  4.9967242618683722e-01  4.9966107329249010e-01  4.9920532964482489e-01  4.9929627568361196e-01  4.9901811102160026e-01  5.0020240879785860e-01  5.0293594017619836e-01  5.0419728763158889e-01  5.0328548291275432e-01  5.0129903797433206e-01  4.9991719871399709e-01  4.9933179128239646e-01  4.9918300884135341e-01  4.9921221696299700e-01  4.9929784270879402e-01  4.9939173115657054e-01  4.9947680824508600e-01  4.9954879016910209e-01  4.9960709094069689e-01  4.9965532328363965e-01  4.9969034122458655e-01  4.9972565248949102e-01  4.9972892814116820e-01  4.9976896813349547e-01  4.9962996023707068e-01  4.9960588368120090e-01  4.9849027278460523e-01  4.9578836670743326e-01  4.9881778885294337e-01  4.0192766987390383e-01  5.1693922870780362e-01  5.6116641894178887e-01  7.0405645704000852e-01  5.6742972953636484e-01  4.1521903241032854e-01  4.7002013157323896e-01  4.9474225349517076e-01  4.9802439660958120e-01  4.9935738920230116e-01  4.9983889193353859e-01  4.9994653459763977e-01  4.9997575511315434e-01  4.9997131913858078e-01  4.9995951173781777e-01  4.9994221509202019e-01  4.9992103497541091e-01  4.9989403933108595e-01  4.9985685055609674e-01  4.9980495796958452e-01  4.9968552807908662e-01  4.9963470507456764e-01  4.9884269540383819e-01  4.9928822158050368e-01  4.9765279749110292e-01  5.0145285151938701e-01  5.0659671257973238e-01  5.0654666140692040e-01  5.0304443164049906e-01  4.9877607497285831e-01  4.9719032203017793e-01  4.9729359803699730e-01  4.9792403584939304e-01  4.9847751313471184e-01  4.9886535577775037e-01  4.9912758774950872e-01  4.9930834183430389e-01  4.9943690397538093e-01  4.9953007950599060e-01  4.9960064032730711e-01  4.9965044531015307e-01  4.9969585745316442e-01  4.9970620225008539e-01  4.9975143592348281e-01  4.9961623903078084e-01  4.9959595509258442e-01  4.9848349926035285e-01  4.9578533029294575e-01  4.9881672483518896e-01  4.0190501794107625e-01  5.1703111231372789e-01  5.6114672842327173e-01  7.0411254847383653e-01  5.6745174493519746e-01  4.1520143310254437e-01  4.7000964261325012e-01  4.9473810178271099e-01  4.9802628322750686e-01  4.9935628632974716e-01  4.9983668497984080e-01  4.9994363628199900e-01  4.9997268071403816e-01  4.9996828863144455e-01  4.9995692857767837e-01  4.9994085387132003e-01  4.9992259599911781e-01  4.9990222162521331e-01  4.9988005263225910e-01  4.9985320863237975e-01  4.9980235354285940e-01  4.9971059562282544e-01  4.9895198515114914e-01  4.9928799862197309e-01  4.9421392817590309e-01  5.0386430282684558e-01  5.0910426574739809e-01  5.0456800251497136e-01  4.9807197404107434e-01  4.9110592544753173e-01  4.9173684840064213e-01  4.9398320582279309e-01  4.9617416165591377e-01  4.9762192111210840e-01  4.9843982799840081e-01  4.9890084938833512e-01  4.9917709072337341e-01  4.9935517546179731e-01  4.9947618544303923e-01  4.9956348905997572e-01  4.9962391372351878e-01  4.9967636647447694e-01  4.9969150238750931e-01  4.9974022174351018e-01  4.9960734995528111e-01  4.9958962320667344e-01  4.9847800215016330e-01  4.9578413226159024e-01  4.9881220219275191e-01  4.0189956773537688e-01  5.1708098596075147e-01  5.6113766743134719e-01  7.0413200483359051e-01  5.6745772760609159e-01  4.1518969028065711e-01  4.7000633240545914e-01  4.9473830626173093e-01  4.9802863847854828e-01  4.9935670937261845e-01  4.9983635065372989e-01  4.9994283241209281e-01  4.9997177680264393e-01  4.9996743433930757e-01  4.9995637728524317e-01  4.9994107520368763e-01  4.9992463281607874e-01  4.9990836348385914e-01  4.9989453761542946e-01  4.9988282728728006e-01  4.9985824751995500e-01  4.9972267383279773e-01  4.9915538441429042e-01  4.9816964573115641e-01  4.9146218995009289e-01  5.0389852057462958e-01  4.9532096822013760e-01  4.9666423472278221e-01  4.8964318006977098e-01  4.6671761643612586e-01  4.8409811143716830e-01  4.9120099449427734e-01  4.9501678932463433e-01  4.9715587439103182e-01  4.9824867458537303e-01  4.9881345912933528e-01  4.9913077868045730e-01  4.9932741152457494e-01  4.9945812765405667e-01  4.9955110610182585e-01  4.9961508740090760e-01  4.9966989770971171e-01  4.9968658728977255e-01  4.9973649523267827e-01  4.9960407732922141e-01  4.9958741879212648e-01  4.9847416965604846e-01  4.9578488635585022e-01  4.9880451193708514e