<?xml version="1.0"?>
<VTKFile type="UnstructuredGrid"  version="0.1"  >
<UnstructuredGrid>
<Piece  NumberOfPoints="1617" NumberOfCells="3072">
<Points>
<DataArray  type="Float64"  NumberOfComponents="3"  format="ascii">0 0 0  0.03125 0 0  0.0625 0 0  0.09375 0 0  0.125 0 0  0.15625 0 0  0.1875 0 0  0.21875 0 0  0.25 0 0  0.28125 0 0  0.3125 0 0  0.34375 0 0  0.375 0 0  0.40625 0 0  0.4375 0 0  0.46875 0 0  0.5 0 0  0.53125 0 0  0.5625 0 0  0.59375 0 0  0.625 0 0  0.65625 0 0  0.6875 0 0  0.71875 0 0  0.75 0 0  0.78125 0 0  0.8125 0 0  0.84375 0 0  0.875 0 0  0.90625 0 0  0.9375 0 0  0.96875 0 0  1 0 0  1.03125 0 0  1.0625 0 0  1.09375 0 0  1.125 0 0  1.15625 0 0  1.1875 0 0  1.21875 0 0  1.25 0 0  1.28125 0 0  1.3125 0 0  1.34375 0 0  1.375 0 0  1.40625 0 0  1.4375 0 0  1.46875 0 0  1.5 0 0  0 0.03125 0  0.03125 0.03125 0  0.0625 0.03125 0  0.09375 0.03125 0  0.125 0.03125 0  0.15625 0.03125 0  0.1875 0.03125 0  0.21875 0.03125 0  0.25 0.03125 0  0.28125 0.03125 0  0.3125 0.03125 0  0.34375 0.03125 0  0.375 0.03125 0  0.40625 0.03125 0  0.4375 0.03125 0  0.46875 0.03125 0  0.5 0.03125 0  0.53125 0.03125 0  0.5625 0.03125 0  0.59375 0.03125 0  0.625 0.03125 0  0.65625 0.03125 0  0.6875 0.03125 0  0.71875 0.03125 0  0.75 0.03125 0  0.78125 0.03125 0  0.8125 0.03125 0  0.84375 0.03125 0  0.875 0.03125 0  0.90625 0.03125 0  0.9375 0.03125 0  0.96875 0.03125 0  1 0.03125 0  1.03125 0.03125 0  1.0625 0.03125 0  1.09375 0.03125 0  1.125 0.03125 0  1.15625 0.03125 0  1.1875 0.03125 0  1.21875 0.03125 0  1.25 0.03125 0  1.28125 0.03125 0  1.3125 0.03125 0  1.34375 0.03125 0  1.375 0.03125 0  1.40625 0.03125 0  1.4375 0.03125 0  1.46875 0.03125 0  1.5 0.03125 0  0 0.0625 0  0.03125 0.0625 0  0.0625 0.0625 0  0.09375 0.0625 0  0.125 0.0625 0  0.15625 0.0625 0  0.1875 0.0625 0  0.21875 0.0625 0  0.25 0.0625 0  0.28125 0.0625 0  0.3125 0.0625 0  0.34375 0.0625 0  0.375 0.0625 0  0.40625 0.0625 0  0.4375 0.0625 0  0.46875 0.0625 0  0.5 0.0625 0  0.53125 0.0625 0  0.5625 0.0625 0  0.59375 0.0625 0  0.625 0.0625 0  0.65625 0.0625 0  0.6875 0.0625 0  0.71875 0.0625 0  0.75 0.0625 0  0.78125 0.0625 0  0.8125 0.0625 0  0.84375 0.0625 0  0.875 0.0625 0  0.90625 0.0625 0  0.9375 0.0625 0  0.96875 0.0625 0  1 0.0625 0  1.03125 0.0625 0  1.0625 0.0625 0  1.09375 0.0625 0  1.125 0.0625 0  1.15625 0.0625 0  1.1875 0.0625 0  1.21875 0.0625 0  1.25 0.0625 0  1.28125 0.0625 0  1.3125 0.0625 0  1.34375 0.0625 0  1.375 0.0625 0  1.40625 0.0625 0  1.4375 0.0625 0  1.46875 0.0625 0  1.5 0.0625 0  0 0.09375 0  0.03125 0.09375 0  0.0625 0.09375 0  0.09375 0.09375 0  0.125 0.09375 0  0.15625 0.09375 0  0.1875 0.09375 0  0.21875 0.09375 0  0.25 0.09375 0  0.28125 0.09375 0  0.3125 0.09375 0  0.34375 0.09375 0  0.375 0.09375 0  0.40625 0.09375 0  0.4375 0.09375 0  0.46875 0.09375 0  0.5 0.09375 0  0.53125 0.09375 0  0.5625 0.09375 0  0.59375 0.09375 0  0.625 0.09375 0  0.65625 0.09375 0  0.6875 0.09375 0  0.71875 0.09375 0  0.75 0.09375 0  0.78125 0.09375 0  0.8125 0.09375 0  0.84375 0.09375 0  0.875 0.09375 0  0.90625 0.09375 0  0.9375 0.09375 0  0.96875 0.09375 0  1 0.09375 0  1.03125 0.09375 0  1.0625 0.09375 0  1.09375 0.09375 0  1.125 0.09375 0  1.15625 0.09375 0  1.1875 0.09375 0  1.21875 0.09375 0  1.25 0.09375 0  1.28125 0.09375 0  1.3125 0.09375 0  1.34375 0.09375 0  1.375 0.09375 0  1.40625 0.09375 0  1.4375 0.09375 0  1.46875 0.09375 0  1.5 0.09375 0  0 0.125 0  0.03125 0.125 0  0.0625 0.125 0  0.09375 0.125 0  0.125 0.125 0  0.15625 0.125 0  0.1875 0.125 0  0.21875 0.125 0  0.25 0.125 0  0.28125 0.125 0  0.3125 0.125 0  0.34375 0.125 0  0.375 0.125 0  0.40625 0.125 0  0.4375 0.125 0  0.46875 0.125 0  0.5 0.125 0  0.53125 0.125 0  0.5625 0.125 0  0.59375 0.125 0  0.625 0.125 0  0.65625 0.125 0  0.6875 0.125 0  0.71875 0.125 0  0.75 0.125 0  0.78125 0.125 0  0.8125 0.125 0  0.84375 0.125 0  0.875 0.125 0  0.90625 0.125 0  0.9375 0.125 0  0.96875 0.125 0  1 0.125 0  1.03125 0.125 0  1.0625 0.125 0  1.09375 0.125 0  1.125 0.125 0  1.15625 0.125 0  1.1875 0.125 0  1.21875 0.125 0  1.25 0.125 0  1.28125 0.125 0  1.3125 0.125 0  1.34375 0.125 0  1.375 0.125 0  1.40625 0.125 0  1.4375 0.125 0  1.46875 0.125 0  1.5 0.125 0  0 0.15625 0  0.03125 0.15625 0  0.0625 0.15625 0  0.09375 0.15625 0  0.125 0.15625 0  0.15625 0.15625 0  0.1875 0.15625 0  0.21875 0.15625 0  0.25 0.15625 0  0.28125 0.15625 0  0.3125 0.15625 0  0.34375 0.15625 0  0.375 0.15625 0  0.40625 0.15625 0  0.4375 0.15625 0  0.46875 0.15625 0  0.5 0.15625 0  0.53125 0.15625 0  0.5625 0.15625 0  0.59375 0.15625 0  0.625 0.15625 0  0.65625 0.15625 0  0.6875 0.15625 0  0.71875 0.15625 0  0.75 0.15625 0  0.78125 0.15625 0  0.8125 0.15625 0  0.84375 0.15625 0  0.875 0.15625 0  0.90625 0.15625 0  0.9375 0.15625 0  0.96875 0.15625 0  1 0.15625 0  1.03125 0.15625 0  1.0625 0.15625 0  1.09375 0.15625 0  1.125 0.15625 0  1.15625 0.15625 0  1.1875 0.15625 0  1.21875 0.15625 0  1.25 0.15625 0  1.28125 0.15625 0  1.3125 0.15625 0  1.34375 0.15625 0  1.375 0.15625 0  1.40625 0.15625 0  1.4375 0.15625 0  1.46875 0.15625 0  1.5 0.15625 0  0 0.1875 0  0.03125 0.1875 0  0.0625 0.1875 0  0.09375 0.1875 0  0.125 0.1875 0  0.15625 0.1875 0  0.1875 0.1875 0  0.21875 0.1875 0  0.25 0.1875 0  0.28125 0.1875 0  0.3125 0.1875 0  0.34375 0.1875 0  0.375 0.1875 0  0.40625 0.1875 0  0.4375 0.1875 0  0.46875 0.1875 0  0.5 0.1875 0  0.53125 0.1875 0  0.5625 0.1875 0  0.59375 0.1875 0  0.625 0.1875 0  0.65625 0.1875 0  0.6875 0.1875 0  0.71875 0.1875 0  0.75 0.1875 0  0.78125 0.1875 0  0.8125 0.1875 0  0.84375 0.1875 0  0.875 0.1875 0  0.90625 0.1875 0  0.9375 0.1875 0  0.96875 0.1875 0  1 0.1875 0  1.03125 0.1875 0  1.0625 0.1875 0  1.09375 0.1875 0  1.125 0.1875 0  1.15625 0.1875 0  1.1875 0.1875 0  1.21875 0.1875 0  1.25 0.1875 0  1.28125 0.1875 0  1.3125 0.1875 0  1.34375 0.1875 0  1.375 0.1875 0  1.40625 0.1875 0  1.4375 0.1875 0  1.46875 0.1875 0  1.5 0.1875 0  0 0.21875 0  0.03125 0.21875 0  0.0625 0.21875 0  0.09375 0.21875 0  0.125 0.21875 0  0.15625 0.21875 0  0.1875 0.21875 0  0.21875 0.21875 0  0.25 0.21875 0  0.28125 0.21875 0  0.3125 0.21875 0  0.34375 0.21875 0  0.375 0.21875 0  0.40625 0.21875 0  0.4375 0.21875 0  0.46875 0.21875 0  0.5 0.21875 0  0.53125 0.21875 0  0.5625 0.21875 0  0.59375 0.21875 0  0.625 0.21875 0  0.65625 0.21875 0  0.6875 0.21875 0  0.71875 0.21875 0  0.75 0.21875 0  0.78125 0.21875 0  0.8125 0.21875 0  0.84375 0.21875 0  0.875 0.21875 0  0.90625 0.21875 0  0.9375 0.21875 0  0.96875 0.21875 0  1 0.21875 0  1.03125 0.21875 0  1.0625 0.21875 0  1.09375 0.21875 0  1.125 0.21875 0  1.15625 0.21875 0  1.1875 0.21875 0  1.21875 0.21875 0  1.25 0.21875 0  1.28125 0.21875 0  1.3125 0.21875 0  1.34375 0.21875 0  1.375 0.21875 0  1.40625 0.21875 0  1.4375 0.21875 0  1.46875 0.21875 0  1.5 0.21875 0  0 0.25 0  0.03125 0.25 0  0.0625 0.25 0  0.09375 0.25 0  0.125 0.25 0  0.15625 0.25 0  0.1875 0.25 0  0.21875 0.25 0  0.25 0.25 0  0.28125 0.25 0  0.3125 0.25 0  0.34375 0.25 0  0.375 0.25 0  0.40625 0.25 0  0.4375 0.25 0  0.46875 0.25 0  0.5 0.25 0  0.53125 0.25 0  0.5625 0.25 0  0.59375 0.25 0  0.625 0.25 0  0.65625 0.25 0  0.6875 0.25 0  0.71875 0.25 0  0.75 0.25 0  0.78125 0.25 0  0.8125 0.25 0  0.84375 0.25 0  0.875 0.25 0  0.90625 0.25 0  0.9375 0.25 0  0.96875 0.25 0  1 0.25 0  1.03125 0.25 0  1.0625 0.25 0  1.09375 0.25 0  1.125 0.25 0  1.15625 0.25 0  1.1875 0.25 0  1.21875 0.25 0  1.25 0.25 0  1.28125 0.25 0  1.3125 0.25 0  1.34375 0.25 0  1.375 0.25 0  1.40625 0.25 0  1.4375 0.25 0  1.46875 0.25 0  1.5 0.25 0  0 0.28125 0  0.03125 0.28125 0  0.0625 0.28125 0  0.09375 0.28125 0  0.125 0.28125 0  0.15625 0.28125 0  0.1875 0.28125 0  0.21875 0.28125 0  0.25 0.28125 0  0.28125 0.28125 0  0.3125 0.28125 0  0.34375 0.28125 0  0.375 0.28125 0  0.40625 0.28125 0  0.4375 0.28125 0  0.46875 0.28125 0  0.5 0.28125 0  0.53125 0.28125 0  0.5625 0.28125 0  0.59375 0.28125 0  0.625 0.28125 0  0.65625 0.28125 0  0.6875 0.28125 0  0.71875 0.28125 0  0.75 0.28125 0  0.78125 0.28125 0  0.8125 0.28125 0  0.84375 0.28125 0  0.875 0.28125 0  0.90625 0.28125 0  0.9375 0.28125 0  0.96875 0.28125 0  1 0.28125 0  1.03125 0.28125 0  1.0625 0.28125 0  1.09375 0.28125 0  1.125 0.28125 0  1.15625 0.28125 0  1.1875 0.28125 0  1.21875 0.28125 0  1.25 0.28125 0  1.28125 0.28125 0  1.3125 0.28125 0  1.34375 0.28125 0  1.375 0.28125 0  1.40625 0.28125 0  1.4375 0.28125 0  1.46875 0.28125 0  1.5 0.28125 0  0 0.3125 0  0.03125 0.3125 0  0.0625 0.3125 0  0.09375 0.3125 0  0.125 0.3125 0  0.15625 0.3125 0  0.1875 0.3125 0  0.21875 0.3125 0  0.25 0.3125 0  0.28125 0.3125 0  0.3125 0.3125 0  0.34375 0.3125 0  0.375 0.3125 0  0.40625 0.3125 0  0.4375 0.3125 0  0.46875 0.3125 0  0.5 0.3125 0  0.53125 0.3125 0  0.5625 0.3125 0  0.59375 0.3125 0  0.625 0.3125 0  0.65625 0.3125 0  0.6875 0.3125 0  0.71875 0.3125 0  0.75 0.3125 0  0.78125 0.3125 0  0.8125 0.3125 0  0.84375 0.3125 0  0.875 0.3125 0  0.90625 0.3125 0  0.9375 0.3125 0  0.96875 0.3125 0  1 0.3125 0  1.03125 0.3125 0  1.0625 0.3125 0  1.09375 0.3125 0  1.125 0.3125 0  1.15625 0.3125 0  1.1875 0.3125 0  1.21875 0.3125 0  1.25 0.3125 0  1.28125 0.3125 0  1.3125 0.3125 0  1.34375 0.3125 0  1.375 0.3125 0  1.40625 0.3125 0  1.4375 0.3125 0  1.46875 0.3125 0  1.5 0.3125 0  0 0.34375 0  0.03125 0.34375 0  0.0625 0.34375 0  0.09375 0.34375 0  0.125 0.34375 0  0.15625 0.34375 0  0.1875 0.34375 0  0.21875 0.34375 0  0.25 0.34375 0  0.28125 0.34375 0  0.3125 0.34375 0  0.34375 0.34375 0  0.375 0.34375 0  0.40625 0.34375 0  0.4375 0.34375 0  0.46875 0.34375 0  0.5 0.34375 0  0.53125 0.34375 0  0.5625 0.34375 0  0.59375 0.34375 0  0.625 0.34375 0  0.65625 0.34375 0  0.6875 0.34375 0  0.71875 0.34375 0  0.75 0.34375 0  0.78125 0.34375 0  0.8125 0.34375 0  0.84375 0.34375 0  0.875 0.34375 0  0.90625 0.34375 0  0.9375 0.34375 0  0.96875 0.34375 0  1 0.34375 0  1.03125 0.34375 0  1.0625 0.34375 0  1.09375 0.34375 0  1.125 0.34375 0  1.15625 0.34375 0  1.1875 0.34375 0  1.21875 0.34375 0  1.25 0.34375 0  1.28125 0.34375 0  1.3125 0.34375 0  1.34375 0.34375 0  1.375 0.34375 0  1
[...]
<PointData  Scalars="f_65"> 
<DataArray  type="Float64"  Name="f_65"  format="ascii">3.0981972171607758e-01  3.1501024996623628e-01  3.0914771052961398e-01  3.4381621939218387e-01  3.6047836653680854e-01  3.7296779421947046e-01  3.8168554172829872e-01  3.8861237624188905e-01  3.9491720823667159e-01  4.0104886563292313e-01  4.0717491258178246e-01  4.1334901617038228e-01  4.1959020933761393e-01  4.2590819547528014e-01  4.3231102340665911e-01  4.3880735744183147e-01  4.4540698969635734e-01  4.5212076864901196e-01  4.5896021773002516e-01  4.6593693223794208e-01  4.7306182405551883e-01  4.8034431001310229e-01  4.8779156926877770e-01  4.9540800452437406e-01  5.0319501844981407e-01  5.1115115936650657e-01  5.1927261222438470e-01  5.2755393615090862e-01  5.3598890312362479e-01  5.4457128782896458e-01  5.5329549267359812e-01  5.6215694778672731e-01  5.7115227568369098e-01  5.8027925207051689e-01  5.8953655860396403e-01  5.9892340494109542e-01  6.0843848734434947e-01  6.1807910185784676e-01  6.2783400674651757e-01  6.3768100278571693e-01  6.4753139110893454e-01  6.5717001164789279e-01  6.6562863362844726e-01  6.6996095219798080e-01  6.6959555316532360e-01  6.3740282313692964e-01  5.7078215868612237e-01  7.8024600571824376e-01  1.0543189580131567e+00  5.4733859651746330e-01  5.3949043589529033e-01  4.4448508078741361e-01  5.0003540856229767e-01  5.1463468356000819e-01  5.2156910788848154e-01  5.2394751131413708e-01  5.2420734299160943e-01  5.2363452343583394e-01  5.2279791032108114e-01  5.2187593262351362e-01  5.2091645167432754e-01  5.1993333947053277e-01  5.1893027804543679e-01  5.1790873151181793e-01  5.1686959017431222e-01  5.1581346193567201e-01  5.1474058894428487e-01  5.1365062048052590e-01  5.1254233501346791e-01  5.1141338162551153e-01  5.1026011951566697e-01  5.0907763159020625e-01  5.0785996292961499e-01  5.0660058583724676e-01  5.0529303093928801e-01  5.0393156907829062e-01  5.0251180401494644e-01  5.0103105390769420e-01  4.9948845535570391e-01  4.9788479537000474e-01  4.9622213795566428e-01  4.9450333832773347e-01  4.9273153959550908e-01  4.9090967329718743e-01  4.8904001882410941e-01  4.8712334550016589e-01  4.8515798382395986e-01  4.8313399306851412e-01  4.8102619620463710e-01  4.7874666964843282e-01  4.7605728238661121e-01  4.7207677526029812e-01  4.6470334537832236e-01  4.5248677977571705e-01  4.2230416289015493e-01  3.6279225636142631e-01  5.1234657250723759e-01  6.4076309116415797e-01  5.7906171605772638e-01  5.2024382902145350e-01  3.9292889186667335e-01  4.7428682252642818e-01  4.8619002226901747e-01  4.9206187422513542e-01  4.9537660841774422e-01  4.9657741156652768e-01  4.9699747318437382e-01  4.9724155584910595e-01  4.9744179459242110e-01  4.9763683707628548e-01  4.9783417378826228e-01  4.9803477416342495e-01  4.9823893250214585e-01  4.9844693072154644e-01  4.9865920964102378e-01  4.9887631815669753e-01  4.9909885284834382e-01  4.9932739099355056e-01  4.9956241996275563e-01  4.9980426940817935e-01  5.0005305308950077e-01  5.0030862892814443e-01  5.0057058850886238e-01  5.0083828845921619e-01  5.0111092999801010e-01  5.0138767710279575e-01  5.0166778534686152e-01  5.0195070637630135e-01  5.0223614329056643e-01  5.0252405339613515e-01  5.0281460971892999e-01  5.0310814462553965e-01  5.0340506414227570e-01  5.0370576682583645e-01  5.0401020200660984e-01  5.0431729330110087e-01  5.0461990049046634e-01  5.0489806979544793e-01  5.0507042358301768e-01  5.0490542654899839e-01  5.0351373740106697e-01  4.9905926529503852e-01  4.9005226246590711e-01  4.6324090583698541e-01  4.1797585904605239e-01  5.7938755747599080e-01  7.2598432851954608e-01  5.8471511437968193e-01  5.1810749976360371e-01  3.9393027478771847e-01  4.8410643208738963e-01  4.8940766861354057e-01  4.9477650269082335e-01  4.9855291960581233e-01  4.9947523632816915e-01  4.9974812888955961e-01  4.9986203848603300e-01  4.9992508270890418e-01  4.9997498665228240e-01  5.0001594377801972e-01  5.0004975037945354e-01  5.0007683049032625e-01  5.0009756646375414e-01  5.0011249628652488e-01  5.0012230981525763e-01  5.0012782653192878e-01  5.0012992416604052e-01  5.0012942698930818e-01  5.0012696064133166e-01  5.0012279030021212e-01  5.0011667644463564e-01  5.0010779784598236e-01  5.0009479234435306e-01  5.0007593705946485e-01  5.0004943254543310e-01  5.0001370124879863e-01  4.9996760279512098e-01  4.9991051355813559e-01  4.9984228128630553e-01  4.9976310376174510e-01  4.9967339323554366e-01  4.9957363874811983e-01  4.9946432407743102e-01  4.9934552260313209e-01  4.9921653807169464e-01  4.9907101990920510e-01  4.9889159371996439e-01  4.9860165751038404e-01  4.9798515451643183e-01  4.9618829641327894e-01  4.9148921361250503e-01  4.8278909385868340e-01  4.5664338091870699e-01  4.1146485215543188e-01  5.7051380606960844e-01  7.0688719842008207e-01  5.8908957376560334e-01  5.2076684663466677e-01  3.9698029589385686e-01  4.8691489624353806e-01  4.8856861888363079e-01  4.9497685090460980e-01  4.9878893511054306e-01  4.9936375660350907e-01  4.9962889778011182e-01  4.9969686678900460e-01  4.9972229264206047e-01  4.9973351708968278e-01  4.9973794963662127e-01  4.9973927597055384e-01  4.9973809810273861e-01  4.9973510691676221e-01  4.9973109225411422e-01  4.9972711709665912e-01  4.9972452954224705e-01  4.9972489257985747e-01  4.9972983124562415e-01  4.9974080154258121e-01  4.9975879144590274e-01  4.9978401692505625e-01  4.9981571689226212e-01  4.9985216770466406e-01  4.9989098316939201e-01  4.9992962963416177e-01  4.9996595531468563e-01  4.9999853112677528e-01  5.0002672262608450e-01  5.0005054989918396e-01  5.0007045271474604e-01  5.0008707048109391e-01  5.0010106318610859e-01  5.0011302551907466e-01  5.0012309824404577e-01  5.0013064012801989e-01  5.0012944017709504e-01  5.0010244137520732e-01  4.9997454850618361e-01  4.9953236171192117e-01  4.9793603373410050e-01  4.9350281392955558e-01  4.8517189931161309e-01  4.5981045353848260e-01  4.1566311686748064e-01  5.7644536678739922e-01  7.1599382785748522e-01  5.9117589693902894e-01  5.2223461994840692e-01  3.9808125625789587e-01  4.8745092673009072e-01  4.8842066109608651e-01  4.9566067085272647e-01  4.9909272841092683e-01  4.9956560852204951e-01  4.9990764789178727e-01  4.9994794714884905e-01  4.9996070027026768e-01  4.9994959520300636e-01  4.9993265022941075e-01  4.9991234629780623e-01  4.9988938005313927e-01  4.9986452268713227e-01  4.9983869570551170e-01  4.9981334143830025e-01  4.9979044655194110e-01  4.9977245567287087e-01  4.9976203541843667e-01  4.9976167447928699e-01  4.9977309903378575e-01  4.9979666060483624e-01  4.9983090502332944e-01  4.9987260696247182e-01  4.9991743594974469e-01  4.9996105465093071e-01  5.0000013595670567e-01  5.0003287008504271e-01  5.0005889256360370e-01  5.0007885581386569e-01  5.0009392515087459e-01  5.0010538730307752e-01  5.0011439733157659e-01  5.0012187946778952e-01  5.0012814284369111e-01  5.0013255638698906e-01  5.0012872972355382e-01  5.0009931159159671e-01  4.9996861957551136e-01  4.9952330670998374e-01  4.9792412173283801e-01  4.9351207403718833e-01  4.8522334292025848e-01  4.6006760321186274e-01  4.1617618469939055e-01  5.7744804546573680e-01  7.1719432879420730e-01  5.9217686078050713e-01  5.2299815418460105e-01  3.9818147813918675e-01  4.8740660173828854e-01  4.8835031567399989e-01  4.9575995659197070e-01  4.9892109159581521e-01  4.9949832138743228e-01  4.9988513323128125e-01  4.9991093761703076e-01  4.9993359373985213e-01  4.9992168464549491e-01  4.9990587527670111e-01  4.9988412605137145e-01  4.9985814413475682e-01  4.9982843922261427e-01  4.9979605921981635e-01  4.9976288270542352e-01  4.9973177172355759e-01  4.9970647854844669e-01  4.9969139135047758e-01  4.9969085161093901e-01  4.9970802400382952e-01  4.9974369594677248e-01  4.9979530961746299e-01  4.9985699941068201e-01  4.9992109638121618e-01  4.9998048761387703e-01  5.0003048335882450e-01  5.0006936593923790e-01  5.0009778812330830e-01  5.0011770836227476e-01  5.0013144797082087e-01  5.0014111737656286e-01  5.0014835731163187e-01  5.0015430953722806e-01  5.0015930423059463e-01  5.0016259320791701e-01  5.0015755085019498e-01  5.0012657405973060e-01  4.9999360277794697e-01  4.9954477012841070e-01  4.9793951201623277e-01  4.9352850946970550e-01  4.8523755899492627e-01  4.6017766769021118e-01  4.1650961510170020e-01  5.7835466051191398e-01  7.1869332426557675e-01  5.9268826099365135e-01  5.2347236134126185e-01  3.9810716397905427e-01  4.8744718056587616e-01  4.8834774724221847e-01  4.9575987977836522e-01  4.9886747038681617e-01  4.9953244941082009e-01  4.9990235848637743e-01  4.9992239977733560e-01  4.9995159389391436e-01  4.9993704412485013e-01  4.9991996538558325e-01  4.9989346838650967e-01  4.9986077763427889e-01  4.9982148758121986e-01  4.9977666003443605e-01  4.9972856446764818e-01  4.9968117242431914e-01  4.9964018152758238e-01  4.9961299396878944e-01  4.9960737339528283e-01  4.9962937753418685e-01  4.9968094498369697e-01  4.9975738817179360e-01  4.9984742864565618e-01  4.9993694477355721e-01  5.0001427608744797e-01  5.0007345601501840e-01  5.0011413957918494e-01  5.0013950154138043e-01  5.0015391986221558e-01  5.0016144293154963e-01  5.0016515504245884e-01  5.0016709946869076e-01  5.0016846702591289e-01  5.0016944652038642e-01  5.0016906433865749e-01  5.0016045288057531e-01  5.0012587346257331e-01  4.9998921302634441e-01  4.9953657247714922e-01  4.9792621529666820e-01  4.9351460620855686e-01  4.8521613608649761e-01  4.6021165768073208e-01  4.1668632425989643e-01  5.7896096754140869e-01  7.1986919366353364e-01  5.9301104044148734e-01  5.2382777033408212e-01  3.9801553177344701e-01  4.8750336404158212e-01  4.8832300526791578e-01  4.9576223826282068e-01  4.9887310215646929e-01  4.9955957451277549e-01  4.9991033882972463e-01  4.9993787252223115e-01  4.9997040561584871e-01  4.9995483932849438e-01  4.9993698873681452e-01  4.9990629796220309e-01  4.9986671211200007e-01  4.9981618637759051e-01  4.9975542671723172e-01  4.9968670567057266e-01  4.9961498718362524e-01  4.9954883011056489e-01  4.9950089577815660e-01  4.9948525668661875e-01  4.9951439691057431e-01  4.9959351496929527e-01  4.9971323031782022e-01  4.9985019235159450e-01  4.9997743525134747e-01  5.0007654483630337e-01  5.0014212046703610e-01  5.0017861168126254e-01  5.0019458248228665e-01  5.0019836877496116e-01  5.0019617030437302e-01  5.0019186087524181e-01  5.0018750083226760e-01  5.0018396422438249e-01  5.0018103571092232e-01  5.0017737048834365e-01  5.0016582486383043e-01  5.0012858185548681e-01  4.9998963592182921e-01  4.9953526815715549e-01  4.9792284127148695e-01  4.9351217873747771e-01  4.8520813476613145e-01  4.6024405937057777e-01  4.1682515995290959e-01  5.7945109651522220e-01  7.2088134212234756e-01  5.9324143181396138e-01  5.2410991292413678e-01  3.9793883356312360e-01  4.8756838092110855e-01  4.8831155006834048e-01  4.9579106839001658e-01  4.9889578919237243e-01  4.9958395921653531e-01  4.9993151884933351e-01  4.9996667459179128e-01  5.0000005474737175e-01  4.9998565853860449e-01  4.9996811106023559e-01  4.9993462782341330e-01  4.9988852947739332e-01  4.9982539586002300e-01  4.9974473571890649e-01  4.9964726441973650e-01  4.9953806006328300e-01  4.9942974356439690e-01  4.9934350691872226e-01  4.9930572585788857e-01  4.9934510844010166e-01  4.9947548192123059e-01  4.9967470051242585e-01  4.9989038079071846e-01  5.0007024455778337e-01  5.0018896827720050e-01  5.0024913267818327e-01  5.0026768700303681e-01  5.0026299247761341e-01  5.0024859257448884e-01  5.0023234931870519e-01  5.0021792238239082e-01  5.0020648878728702e-01  5.0019798818988215e-01  5.0019144745620792e-01  5.0018498518420085e-01  5.0017113844565597e-01  5.0013202623058661e-01  4.9999181472023546e-01  4.9953703856121534e-01  4.9792437940450224e-01  4.9351554132935371e-01  4.8520801610268466e-01  4.6027473420205034e-01  4.1693751319798861e-01  5.7985523236880920e-01  7.2175925970599619e-01  5.9341191075299693e-01  5.2433189246146528e-01  3.9787340833965668e-01  4.8762791915089432e-01  4.8830408560051936e-01  4.9582124426283747e-01  4.9891590071515429e-01  4.9960880326940266e-01  4.9995934137145298e-01  4.9999939859121767e-01  5.0003588565467405e-01  5.0002620779461937e-01  5.0001211692333647e-01  4.9997960928636920e-01  4.9993008420735646e-01  4.9985577727482611e-01  4.9975304395963493e-01  4.9961687068082122e-01  4.9945074961786323e-01  4.9927073225774549e-01  4.9911074560217877e-01  4.9902453098900051e-01  4.9908340419036018e-01  4.9932015835924876e-01  4.9967332459281699e-01  5.0001915166258282e-01  5.0026000175035434e-01  5.0037663658365972e-01  5.0040123884148713e-01  5.0037701157784054e-01  5.0033609597906270e-01  5.0029570662388290e-01  5.0026250236143588e-01  5.0023755595091601e-01  5.0021968755660617e-01  5.0020714883690787e-01  5.0019789496934774e-01  5.0018942165516300e-01  5.0017396238543155e-01  5.0013360794112727e-01  4.9999273831753843e-01  4.9953817203752698e-01  4.9792611866592607e-01  4.9351922076950572e-01  4.8520976055098625e-01  4.6030028629625414e-01  4.1702711718273711e-01  5.8018591653686047e-01  7.2250641174710517e-01  5.9353868675365895e-01  5.2450440400358533e-01  3.9781875616478857e-01  4.8768081675545299e-01  4.8830043255764966e-01  4.9585121958374323e-01  4.9893769804784965e-01  4.9963762049842847e-01  4.9999175532670631e-01  5.0003726153403960e-01  5.0008061378591995e-01  5.0007934490545314e-01  5.0007358638111921e-01  5.0004840686173768e-01  5.0000248856124874e-01  4.9992359596832081e-01  4.9980097576088406e-01  4.9961675318180571e-01  4.9936888178999028e-01  4.9906588661626861e-01  4.9876254217970806e-01  4.9857451217276622e-01  4.9868189342241021e-01  4.9915290540191692e-01  4.9980505745157650e-01  5.0034325151467540e-01  5.0060956464815587e-01  5.0065218623530594e-01  5.0058157042493068e-01  5.0048165587975091e-01  5.0039187430805487e-01  5.0032392550084559e-01  5.0027657774190792e-01  5.0024489771407743e-01  5.0022397210609026e-01  5.0021001382063379e-01  5.0019996886360318e-01  5.0019088678439727e-01  5.0017486878045847e-01  5.0013409212668825e-01  4.9999321875848568e-01  4.9953938378150997e-01  4.9792853155175965e-01  4.9352366360085637e-01  4.8521372986071781e-01  4.6032298827727125e-01  4.1710072713485813e-01  5.8045682731593840e-01  7.2313502309967326e-01  5.9363155535812684e-01  5.2463535503507297e-01  3.9777380196228557e-01  4.8772623891125644e-01  4.8829925258556323e-01  4.9587929270335784e-01  4.9895969144320912e-01  4.9966706757241813e-01  5.0002565257177911e-01  5.0007871331875697e-01  5.0013213897709052e-01  5.0014345546172578e-01  5.0015275506314205e-01  5.0014464759101374e-01  5.0011557514654037e-01  5.0004810208258221e-01  4.9991908633906895e-01  4.9968924157928807e-01  4.9933603339203497e-01  4.9882708897192807e-01  4.9825961411338571e-01  4.9787118775521022e-01  4.9811597833964355e-01  4.9909545668529876e-01  5.0029162438114760e-01  5.0103904073040773e-01  5.0114977452646603e-01  5.0094335635849230e-01  5.0069576277736472e-01  5.0050589907561294e-01  5.0038279097952132e-01  5.0030687719689659e-01  5.0026117147477200e-01  5.0023358029117471e-01  5.0021653391975740e-01  5.0020548247696417e-01  5.0019734258759563e-01  5.0018936799737501e-01  5.0017392704641073e-01  5.0013350064963646e-01  4.9999313634411063e-01  4.9954032504091428e-01  4.9793094024373225e-01  4.9352802132947826e-01  4.8521869391887140e-01  4.6034258895095681e-01  4.1716053537324127e-01  5.8067380204099073e-01  7.2364880449075419e-01  5.9369735458916706e-01  5.2473098400117291e-01  3.9773763229032993e-01  4.8776356608561594e-01  4.8829928278317691e-01  4.9590384640719021e-01  4.9897985912887499e-01  4.9969453983845596e-01  5.0005837710459877e-01  5.0012034627640389e-01  5.0018599307320810e-01  5.0021387560992103e-01  5.0024551566584263e-01  5.0026688349977411e-01  5.0027498167410156e-01  5.0024962469099932e-01  5.0015561973739253e-01  4.9992961279548909e-01  4.9950165272363689e-01  4.9875310364725450e-01  4.9782609195652022e-01  4.9707099213198336e-01  4.9753148740347747e-01  4.9941638970445057e-01  5.0158868152636371e-01  5.0233538912252651e-01  5.0170741609835245e-01  5.0096275738873330e-01  5.0049490504375171e-01  5.0029988553267635e-01  5.0023171676405209e-01  5.0021133316459720e-01  5.0020398399381172e-01  5.0020005856878824e-01  5.0019702790100062e-01  5.0019417032313174e-01  5.0019077497620634e-01  5.0018550529687122e-01  5.0017159149957768e-01  5.0013209278235315e-01  4.9999254845102920e-01  4.9954082875071765e-01  4.9793289983704991e-01  4.9353170824732268e-01  4.8522368529462251e-01  4.6035875878631605e-01  4.1720782757848329e-01  5.8084034892618408e-01  7.2404930758820407e-01  5.9374106555765216e-01  5.2479613914710732e-01  3.9770949590783844e-01  4.8779232676370909e-01  4.8829958855946248e-01  4.9592356522733982e-01  4.9899635719601076e-01  4.9971743039776295e-01  5.0008631179153218e-01  5.0015699226659838e-01  5.0023516486072483e-01  5.0028134443323857e-01  5.0034000259732536e-01  5.0040147730770501e-01  5.0046884188133312e-01  5.0052838575782432e-01  5.0054769443201763e-01  5.0045415735378362e-01  5.0011680255072066e-01  4.9928336365573944e-01  4.9795051017296005e-01  4.9627513824587405e-01  4.9648920187656326e-01  5.0033041892910479e-01  5.0443918044056379e-01  5.0474307321950229e-01  5.0216419210737695e-01  4.9999037238774857e-01  4.9961526653351934e-01  4.9968665973681842e-01  4.9987538024618405e-01  5.0002068537597610e-01  5.0010552298215838e-01  5.0014891054938082e-01  5.0016981459664522e-01  5.0017929818717888e-01  5.0018244389140720e-01  5.0018071708288736e-01  5.0016876024842094e-01  5.0013040650546514e-01  4.9999172300242756e-01  4.9954092853461396e-01  4.9793419628966068e-01  4.9353438280337797e-01  4.8522801539796839e-01  4.6037122820320575e-01  4.1724337038387238e-01  5.8095847077379503e-01  7.2433692987016252e-01  5.9376617476558524e-01  5.2483433633657883e-01  3.9768873379790426e-01  4.8781209207848003e-01  4.8829937485560498e-01  4.9593721228276944e-01  4.9900735947805741e-01  4.9973300696028050e-01  5.0010542455449114e-01  5.0018265175136367e-01  5.0027062801083810e-01  5.0033196356378140e-01  5.0041455020248704e-01  5.0051462471515307e-01  5.0064523214687728e-01  5.0080854745272430e-01  5.0099570417121708e-01  5.0116300923314117e-01  5.0119811921177160e-01  5.0088261954719548e-01  5.0021701900225557e-01  4.9898172225200310e-01  4.9734288089349410e-01  5.0311252050807387e-01  5.1345219947631959e-01  5.1260130315675867e-01  5.0035222920481959e-01  4.9859743050539035e-01  4.9786352346491458e-01  4.9872067739467846e-01  4.9938408955762548e-01  4.9978870885093624e-01  4.9999865330541754e-01  5.0009877064171049e-01  5.0014523354455986e-01  5.0016660400116442e-01  5.0017558002209483e-01  5.0017685419179347e-01  5.0016650228352766e-01  5.0012904550851756e-01  4.9999096112185670e-01  4.9954069618030639e-01  4.9793468711714278e-01  4.9353578563442074e-01  4.8523114348741964e-01  4.6037972146502748e-01  4.1726754968149454e-01  5.8102916162644447e-01  7.2451138771882262e-01  5.9377473650070101e-01  5.2484773869619739e-01  3.9767479686447049e-01  4.8782256184117573e-01  4.8829808468879510e-01  4.9594389359639501e-01  4.9901152141899519e-01  4.9973918104783782e-01  5.0011249034327143e-01  5.0019221759395371e-01  5.0028401017494195e-01  5.0035147934194391e-01  5.0044401783756887e-01  5.0056055548115119e-01  5.0071888647343077e-01  5.0092952535868762e-01  5.0119863873883785e-01  5.0151086131456868e-01  5.0182162135486230e-01  5.0210457383166240e-01  5.0271644125467541e-01  5.0394494364749443e-01  4.9986794613439695e-01  5.2337736518368250e-01  5.2058601948406857e-01  5.2335028595255850e-01  5.2197360990440789e-01  4.9413091092498757e-01  4.9677043010282707e-01  4.9804621089952855e-01  4.9909259305275328e-01  4.9967216785677443e-01  4.9995187351948805e-01  5.0007962339276624e-01  5.0013663655218066e-01  5.0016232763793389e-01  5.0017327614790208e-01  5.0017553568130668e-01  5.0016569802911903e-01  5.0012849023631889e-01  4.9999050315798199e-01  4.9954020168837371e-01  4.9793429607512524e-01  4.9353575632980901e-01  4.8523273544978496e-01  4.6038406104447938e