<?xml version="1.0"?>
<VTKFile type="UnstructuredGrid"  version="0.1"  >
<UnstructuredGrid>
<Piece  NumberOfPoints="1617" NumberOfCells="3072">
<Points>
<DataArray  type="Float64"  NumberOfComponents="3"  format="ascii">0 0 0  0.03125 0 0  0.0625 0 0  0.09375 0 0  0.125 0 0  0.15625 0 0  0.1875 0 0  0.21875 0 0  0.25 0 0  0.28125 0 0  0.3125 0 0  0.34375 0 0  0.375 0 0  0.40625 0 0  0.4375 0 0  0.46875 0 0  0.5 0 0  0.53125 0 0  0.5625 0 0  0.59375 0 0  0.625 0 0  0.65625 0 0  0.6875 0 0  0.71875 0 0  0.75 0 0  0.78125 0 0  0.8125 0 0  0.84375 0 0  0.875 0 0  0.90625 0 0  0.9375 0 0  0.96875 0 0  1 0 0  1.03125 0 0  1.0625 0 0  1.09375 0 0  1.125 0 0  1.15625 0 0  1.1875 0 0  1.21875 0 0  1.25 0 0  1.28125 0 0  1.3125 0 0  1.34375 0 0  1.375 0 0  1.40625 0 0  1.4375 0 0  1.46875 0 0  1.5 0 0  0 0.03125 0  0.03125 0.03125 0  0.0625 0.03125 0  0.09375 0.03125 0  0.125 0.03125 0  0.15625 0.03125 0  0.1875 0.03125 0  0.21875 0.03125 0  0.25 0.03125 0  0.28125 0.03125 0  0.3125 0.03125 0  0.34375 0.03125 0  0.375 0.03125 0  0.40625 0.03125 0  0.4375 0.03125 0  0.46875 0.03125 0  0.5 0.03125 0  0.53125 0.03125 0  0.5625 0.03125 0  0.59375 0.03125 0  0.625 0.03125 0  0.65625 0.03125 0  0.6875 0.03125 0  0.71875 0.03125 0  0.75 0.03125 0  0.78125 0.03125 0  0.8125 0.03125 0  0.84375 0.03125 0  0.875 0.03125 0  0.90625 0.03125 0  0.9375 0.03125 0  0.96875 0.03125 0  1 0.03125 0  1.03125 0.03125 0  1.0625 0.03125 0  1.09375 0.03125 0  1.125 0.03125 0  1.15625 0.03125 0  1.1875 0.03125 0  1.21875 0.03125 0  1.25 0.03125 0  1.28125 0.03125 0  1.3125 0.03125 0  1.34375 0.03125 0  1.375 0.03125 0  1.40625 0.03125 0  1.4375 0.03125 0  1.46875 0.03125 0  1.5 0.03125 0  0 0.0625 0  0.03125 0.0625 0  0.0625 0.0625 0  0.09375 0.0625 0  0.125 0.0625 0  0.15625 0.0625 0  0.1875 0.0625 0  0.21875 0.0625 0  0.25 0.0625 0  0.28125 0.0625 0  0.3125 0.0625 0  0.34375 0.0625 0  0.375 0.0625 0  0.40625 0.0625 0  0.4375 0.0625 0  0.46875 0.0625 0  0.5 0.0625 0  0.53125 0.0625 0  0.5625 0.0625 0  0.59375 0.0625 0  0.625 0.0625 0  0.65625 0.0625 0  0.6875 0.0625 0  0.71875 0.0625 0  0.75 0.0625 0  0.78125 0.0625 0  0.8125 0.0625 0  0.84375 0.0625 0  0.875 0.0625 0  0.90625 0.0625 0  0.9375 0.0625 0  0.96875 0.0625 0  1 0.0625 0  1.03125 0.0625 0  1.0625 0.0625 0  1.09375 0.0625 0  1.125 0.0625 0  1.15625 0.0625 0  1.1875 0.0625 0  1.21875 0.0625 0  1.25 0.0625 0  1.28125 0.0625 0  1.3125 0.0625 0  1.34375 0.0625 0  1.375 0.0625 0  1.40625 0.0625 0  1.4375 0.0625 0  1.46875 0.0625 0  1.5 0.0625 0  0 0.09375 0  0.03125 0.09375 0  0.0625 0.09375 0  0.09375 0.09375 0  0.125 0.09375 0  0.15625 0.09375 0  0.1875 0.09375 0  0.21875 0.09375 0  0.25 0.09375 0  0.28125 0.09375 0  0.3125 0.09375 0  0.34375 0.09375 0  0.375 0.09375 0  0.40625 0.09375 0  0.4375 0.09375 0  0.46875 0.09375 0  0.5 0.09375 0  0.53125 0.09375 0  0.5625 0.09375 0  0.59375 0.09375 0  0.625 0.09375 0  0.65625 0.09375 0  0.6875 0.09375 0  0.71875 0.09375 0  0.75 0.09375 0  0.78125 0.09375 0  0.8125 0.09375 0  0.84375 0.09375 0  0.875 0.09375 0  0.90625 0.09375 0  0.9375 0.09375 0  0.96875 0.09375 0  1 0.09375 0  1.03125 0.09375 0  1.0625 0.09375 0  1.09375 0.09375 0  1.125 0.09375 0  1.15625 0.09375 0  1.1875 0.09375 0  1.21875 0.09375 0  1.25 0.09375 0  1.28125 0.09375 0  1.3125 0.09375 0  1.34375 0.09375 0  1.375 0.09375 0  1.40625 0.09375 0  1.4375 0.09375 0  1.46875 0.09375 0  1.5 0.09375 0  0 0.125 0  0.03125 0.125 0  0.0625 0.125 0  0.09375 0.125 0  0.125 0.125 0  0.15625 0.125 0  0.1875 0.125 0  0.21875 0.125 0  0.25 0.125 0  0.28125 0.125 0  0.3125 0.125 0  0.34375 0.125 0  0.375 0.125 0  0.40625 0.125 0  0.4375 0.125 0  0.46875 0.125 0  0.5 0.125 0  0.53125 0.125 0  0.5625 0.125 0  0.59375 0.125 0  0.625 0.125 0  0.65625 0.125 0  0.6875 0.125 0  0.71875 0.125 0  0.75 0.125 0  0.78125 0.125 0  0.8125 0.125 0  0.84375 0.125 0  0.875 0.125 0  0.90625 0.125 0  0.9375 0.125 0  0.96875 0.125 0  1 0.125 0  1.03125 0.125 0  1.0625 0.125 0  1.09375 0.125 0  1.125 0.125 0  1.15625 0.125 0  1.1875 0.125 0  1.21875 0.125 0  1.25 0.125 0  1.28125 0.125 0  1.3125 0.125 0  1.34375 0.125 0  1.375 0.125 0  1.40625 0.125 0  1.4375 0.125 0  1.46875 0.125 0  1.5 0.125 0  0 0.15625 0  0.03125 0.15625 0  0.0625 0.15625 0  0.09375 0.15625 0  0.125 0.15625 0  0.15625 0.15625 0  0.1875 0.15625 0  0.21875 0.15625 0  0.25 0.15625 0  0.28125 0.15625 0  0.3125 0.15625 0  0.34375 0.15625 0  0.375 0.15625 0  0.40625 0.15625 0  0.4375 0.15625 0  0.46875 0.15625 0  0.5 0.15625 0  0.53125 0.15625 0  0.5625 0.15625 0  0.59375 0.15625 0  0.625 0.15625 0  0.65625 0.15625 0  0.6875 0.15625 0  0.71875 0.15625 0  0.75 0.15625 0  0.78125 0.15625 0  0.8125 0.15625 0  0.84375 0.15625 0  0.875 0.15625 0  0.90625 0.15625 0  0.9375 0.15625 0  0.96875 0.15625 0  1 0.15625 0  1.03125 0.15625 0  1.0625 0.15625 0  1.09375 0.15625 0  1.125 0.15625 0  1.15625 0.15625 0  1.1875 0.15625 0  1.21875 0.15625 0  1.25 0.15625 0  1.28125 0.15625 0  1.3125 0.15625 0  1.34375 0.15625 0  1.375 0.15625 0  1.40625 0.15625 0  1.4375 0.15625 0  1.46875 0.15625 0  1.5 0.15625 0  0 0.1875 0  0.03125 0.1875 0  0.0625 0.1875 0  0.09375 0.1875 0  0.125 0.1875 0  0.15625 0.1875 0  0.1875 0.1875 0  0.21875 0.1875 0  0.25 0.1875 0  0.28125 0.1875 0  0.3125 0.1875 0  0.34375 0.1875 0  0.375 0.1875 0  0.40625 0.1875 0  0.4375 0.1875 0  0.46875 0.1875 0  0.5 0.1875 0  0.53125 0.1875 0  0.5625 0.1875 0  0.59375 0.1875 0  0.625 0.1875 0  0.65625 0.1875 0  0.6875 0.1875 0  0.71875 0.1875 0  0.75 0.1875 0  0.78125 0.1875 0  0.8125 0.1875 0  0.84375 0.1875 0  0.875 0.1875 0  0.90625 0.1875 0  0.9375 0.1875 0  0.96875 0.1875 0  1 0.1875 0  1.03125 0.1875 0  1.0625 0.1875 0  1.09375 0.1875 0  1.125 0.1875 0  1.15625 0.1875 0  1.1875 0.1875 0  1.21875 0.1875 0  1.25 0.1875 0  1.28125 0.1875 0  1.3125 0.1875 0  1.34375 0.1875 0  1.375 0.1875 0  1.40625 0.1875 0  1.4375 0.1875 0  1.46875 0.1875 0  1.5 0.1875 0  0 0.21875 0  0.03125 0.21875 0  0.0625 0.21875 0  0.09375 0.21875 0  0.125 0.21875 0  0.15625 0.21875 0  0.1875 0.21875 0  0.21875 0.21875 0  0.25 0.21875 0  0.28125 0.21875 0  0.3125 0.21875 0  0.34375 0.21875 0  0.375 0.21875 0  0.40625 0.21875 0  0.4375 0.21875 0  0.46875 0.21875 0  0.5 0.21875 0  0.53125 0.21875 0  0.5625 0.21875 0  0.59375 0.21875 0  0.625 0.21875 0  0.65625 0.21875 0  0.6875 0.21875 0  0.71875 0.21875 0  0.75 0.21875 0  0.78125 0.21875 0  0.8125 0.21875 0  0.84375 0.21875 0  0.875 0.21875 0  0.90625 0.21875 0  0.9375 0.21875 0  0.96875 0.21875 0  1 0.21875 0  1.03125 0.21875 0  1.0625 0.21875 0  1.09375 0.21875 0  1.125 0.21875 0  1.15625 0.21875 0  1.1875 0.21875 0  1.21875 0.21875 0  1.25 0.21875 0  1.28125 0.21875 0  1.3125 0.21875 0  1.34375 0.21875 0  1.375 0.21875 0  1.40625 0.21875 0  1.4375 0.21875 0  1.46875 0.21875 0  1.5 0.21875 0  0 0.25 0  0.03125 0.25 0  0.0625 0.25 0  0.09375 0.25 0  0.125 0.25 0  0.15625 0.25 0  0.1875 0.25 0  0.21875 0.25 0  0.25 0.25 0  0.28125 0.25 0  0.3125 0.25 0  0.34375 0.25 0  0.375 0.25 0  0.40625 0.25 0  0.4375 0.25 0  0.46875 0.25 0  0.5 0.25 0  0.53125 0.25 0  0.5625 0.25 0  0.59375 0.25 0  0.625 0.25 0  0.65625 0.25 0  0.6875 0.25 0  0.71875 0.25 0  0.75 0.25 0  0.78125 0.25 0  0.8125 0.25 0  0.84375 0.25 0  0.875 0.25 0  0.90625 0.25 0  0.9375 0.25 0  0.96875 0.25 0  1 0.25 0  1.03125 0.25 0  1.0625 0.25 0  1.09375 0.25 0  1.125 0.25 0  1.15625 0.25 0  1.1875 0.25 0  1.21875 0.25 0  1.25 0.25 0  1.28125 0.25 0  1.3125 0.25 0  1.34375 0.25 0  1.375 0.25 0  1.40625 0.25 0  1.4375 0.25 0  1.46875 0.25 0  1.5 0.25 0  0 0.28125 0  0.03125 0.28125 0  0.0625 0.28125 0  0.09375 0.28125 0  0.125 0.28125 0  0.15625 0.28125 0  0.1875 0.28125 0  0.21875 0.28125 0  0.25 0.28125 0  0.28125 0.28125 0  0.3125 0.28125 0  0.34375 0.28125 0  0.375 0.28125 0  0.40625 0.28125 0  0.4375 0.28125 0  0.46875 0.28125 0  0.5 0.28125 0  0.53125 0.28125 0  0.5625 0.28125 0  0.59375 0.28125 0  0.625 0.28125 0  0.65625 0.28125 0  0.6875 0.28125 0  0.71875 0.28125 0  0.75 0.28125 0  0.78125 0.28125 0  0.8125 0.28125 0  0.84375 0.28125 0  0.875 0.28125 0  0.90625 0.28125 0  0.9375 0.28125 0  0.96875 0.28125 0  1 0.28125 0  1.03125 0.28125 0  1.0625 0.28125 0  1.09375 0.28125 0  1.125 0.28125 0  1.15625 0.28125 0  1.1875 0.28125 0  1.21875 0.28125 0  1.25 0.28125 0  1.28125 0.28125 0  1.3125 0.28125 0  1.34375 0.28125 0  1.375 0.28125 0  1.40625 0.28125 0  1.4375 0.28125 0  1.46875 0.28125 0  1.5 0.28125 0  0 0.3125 0  0.03125 0.3125 0  0.0625 0.3125 0  0.09375 0.3125 0  0.125 0.3125 0  0.15625 0.3125 0  0.1875 0.3125 0  0.21875 0.3125 0  0.25 0.3125 0  0.28125 0.3125 0  0.3125 0.3125 0  0.34375 0.3125 0  0.375 0.3125 0  0.40625 0.3125 0  0.4375 0.3125 0  0.46875 0.3125 0  0.5 0.3125 0  0.53125 0.3125 0  0.5625 0.3125 0  0.59375 0.3125 0  0.625 0.3125 0  0.65625 0.3125 0  0.6875 0.3125 0  0.71875 0.3125 0  0.75 0.3125 0  0.78125 0.3125 0  0.8125 0.3125 0  0.84375 0.3125 0  0.875 0.3125 0  0.90625 0.3125 0  0.9375 0.3125 0  0.96875 0.3125 0  1 0.3125 0  1.03125 0.3125 0  1.0625 0.3125 0  1.09375 0.3125 0  1.125 0.3125 0  1.15625 0.3125 0  1.1875 0.3125 0  1.21875 0.3125 0  1.25 0.3125 0  1.28125 0.3125 0  1.3125 0.3125 0  1.34375 0.3125 0  1.375 0.3125 0  1.40625 0.3125 0  1.4375 0.3125 0  1.46875 0.3125 0  1.5 0.3125 0  0 0.34375 0  0.03125 0.34375 0  0.0625 0.34375 0  0.09375 0.34375 0  0.125 0.34375 0  0.15625 0.34375 0  0.1875 0.34375 0  0.21875 0.34375 0  0.25 0.34375 0  0.28125 0.34375 0  0.3125 0.34375 0  0.34375 0.34375 0  0.375 0.34375 0  0.40625 0.34375 0  0.4375 0.34375 0  0.46875 0.34375 0  0.5 0.34375 0  0.53125 0.34375 0  0.5625 0.34375 0  0.59375 0.34375 0  0.625 0.34375 0  0.65625 0.34375 0  0.6875 0.34375 0  0.71875 0.34375 0  0.75 0.34375 0  0.78125 0.34375 0  0.8125 0.34375 0  0.84375 0.34375 0  0.875 0.34375 0  0.90625 0.34375 0  0.9375 0.34375 0  0.96875 0.34375 0  1 0.34375 0  1.03125 0.34375 0  1.0625 0.34375 0  1.09375 0.34375 0  1.125 0.34375 0  1.15625 0.34375 0  1.1875 0.34375 0  1.21875 0.34375 0  1.25 0.34375 0  1.28125 0.34375 0  1.3125 0.34375 0  1.34375 0.34375 0  1.375 0.34375 0  1
[...]
<PointData  Scalars="f_65"> 
<DataArray  type="Float64"  Name="f_65"  format="ascii">6.2230575932732797e-02  5.0610896093484115e-01  6.0117501167206377e-01  6.1411476536199383e-01  6.2455520490138328e-01  6.2580538202867830e-01  6.2238674862050702e-01  6.1713973489093332e-01  6.1125192528640448e-01  6.0516914558425505e-01  5.9904052313072653e-01  5.9291647909227485e-01  5.8681530439607932e-01  5.8074533826740027e-01  5.7471130789347169e-01  5.6871619014033603e-01  5.6276172583285022e-01  5.5684850799133212e-01  5.5097592220175673e-01  5.4514205775604030e-01  5.3934367760952673e-01  5.3357632949214551e-01  5.2783466865755702e-01  5.2211302870265608e-01  5.1640621815678767e-01  5.1071044747227479e-01  5.0502422894967247e-01  4.9934906551733915e-01  4.9368977714519507e-01  4.8805439053333810e-01  4.8245361796501168e-01  4.7690008141674339e-01  4.7140727781364938e-01  4.6598908145383711e-01  4.6065772072523881e-01  4.5542720088025129e-01  4.5030116190304392e-01  4.4530504758668032e-01  4.4039894937925822e-01  4.3568012431813091e-01  4.3095230299164328e-01  4.2621814448648698e-01  4.2256502470195850e-01  4.1019344740660346e-01  4.3202234758547414e-01  2.7564388917061244e-01  7.4139511657699408e-01  -8.3535200171004842e-01  2.5637548213130743e+00  5.9125073357510684e-03  3.6500447387387264e-01  4.5365218513580624e-01  4.5572213040620918e-01  4.7230833920905874e-01  4.8168198690397229e-01  4.8562397875636987e-01  4.8731378834325689e-01  4.8832046798505702e-01  4.8913557835244736e-01  4.8991091569535516e-01  4.9068727174462762e-01  4.9147433163765791e-01  4.9227437235582794e-01  4.9308814139293805e-01  4.9391630600628189e-01  4.9475975633257263e-01  4.9561959386257132e-01  4.9649696290763018e-01  4.9739278214879773e-01  4.9830742260223265e-01  4.9924039532065212e-01  5.0019012467013524e-01  5.0115387957259927e-01  5.0212790826650311e-01  5.0310777385050010e-01  5.0408883174217456e-01  5.0506674658249284e-01  5.0603793464346636e-01  5.0699984497106843e-01  5.0795103808059727e-01  5.0889110358067502e-01  5.0982039346992003e-01  5.1073989735260750e-01  5.1165048980920180e-01  5.1255398212491776e-01  5.1344905866568402e-01  5.1434009142020798e-01  5.1521335241741051e-01  5.1607374415048834e-01  5.1689114612752851e-01  5.1735741847287431e-01  5.1844102535588332e-01  5.1314189828847390e-01  5.2334922246815319e-01  4.4140342771686403e-01  6.5139441764007988e-01  -1.7107452755673996e-01  2.6464435495984668e+00  4.7802286773543881e-02  3.7432831547714274e-01  4.7990501483979370e-01  4.6791974696557981e-01  4.8575362895704727e-01  4.9574098556222079e-01  4.9898996453629985e-01  4.9992305525939817e-01  5.0026763940749852e-01  5.0044948755348861e-01  5.0058984610799284e-01  5.0071165527776251e-01  5.0081833933812681e-01  5.0090986570688689e-01  5.0098608602689898e-01  5.0104698985881146e-01  5.0109261116687720e-01  5.0112294562511683e-01  5.0113789315850510e-01  5.0113721950319168e-01  5.0112053359355102e-01  5.0108728453098628e-01  5.0103677846364747e-01  5.0096821540368308e-01  5.0088074608333100e-01  5.0077354913965599e-01  5.0064592499969418e-01  5.0049739124111603e-01  5.0032775652979100e-01  5.0013714805328957e-01  4.9992598779408626e-01  4.9969493775817564e-01  4.9944478421475980e-01  4.9917652734010659e-01  4.9889078041093732e-01  4.9858953861317107e-01  4.9827062591225085e-01  4.9794331028793054e-01  4.9758447151569879e-01  4.9724117772826720e-01  4.9678993827136364e-01  4.9623043133354544e-01  4.9582363051487516e-01  4.9044728330768739e-01  4.9909598057916066e-01  4.1768029210660607e-01  6.5209133866906277e-01  -2.0593194515183727e-01  2.4555951168238290e+00  5.0054300432352553e-02  3.6973245145865907e-01  4.8812218519942813e-01  4.6555794123577443e-01  4.8704642015609401e-01  4.9605181207666499e-01  4.9846384905019386e-01  4.9912695704520788e-01  4.9932792978057572e-01  4.9940987008002902e-01  4.9946419945620035e-01  4.9951040751032444e-01  4.9955386787239853e-01  4.9959564557702923e-01  4.9963629528653197e-01  4.9967622976224163e-01  4.9971585454176470e-01  4.9975557036263502e-01  4.9979574301591295e-01  4.9983664631276686e-01  4.9987839197125988e-01  4.9992085873805342e-01  4.9996363282037010e-01  5.0000598456189493e-01  5.0004690919068728e-01  5.0008525402498738e-01  5.0011992544423334e-01  5.0015012248874047e-01  5.0017551329173937e-01  5.0019628438687758e-01  5.0021305084417300e-01  5.0022669330661862e-01  5.0023811808984819e-01  5.0024828518887099e-01  5.0025753427218334e-01  5.0026738277300631e-01  5.0027506890385232e-01  5.0028858652329988e-01  5.0028579732245371e-01  5.0030692679820910e-01  5.0024916230933769e-01  5.0005454073482847e-01  5.0018312870834680e-01  4.9506267989796671e-01  5.0487818620560931e-01  4.2407419363973714e-01  6.5840843915031466e-01  -1.9727489264828757e-01  2.5066847231641534e+00  5.0975436656744935e-02  3.7116205232456079e-01  4.9219922535643745e-01  4.6510238332109938e-01  4.8917582423128148e-01  4.9653721744680346e-01  4.9883776037554384e-01  4.9956316466457285e-01  4.9975537344135751e-01  4.9982554609489843e-01  4.9985133319647790e-01  4.9986647469282286e-01  4.9987912189333367e-01  4.9989120044193885e-01  4.9990342608488969e-01  4.9991618335530230e-01  4.9992987593046623e-01  4.9994496175457975e-01  4.9996189670161933e-01  4.9998103941654942e-01  5.0000253542239392e-01  5.0002618681553379e-01  5.0005132607620206e-01  5.0007674645114875e-01  5.0010074806154359e-01  5.0012136094320958e-01  5.0013674007464393e-01  5.0014561691988968e-01  5.0014761520366302e-01  5.0014328583307455e-01  5.0013387138972487e-01  5.0012094819114938e-01  5.0010603943747334e-01  5.0009054542994102e-01  5.0007510255455856e-01  5.0006131049422686e-01  5.0004652344198908e-01  5.0003854958834149e-01  5.0001519219569546e-01  5.0001717798620227e-01  4.9993764578222399e-01  4.9973548072707386e-01  4.9981752214421504e-01  4.9479572086158652e-01  5.0445677746796580e-01  4.2440416798052388e-01  6.5832861536578824e-01  -1.9431354679311519e-01  2.5027123589236902e+00  5.1252859206802573e-02  3.7219734478598315e-01  4.9324092121309843e-01  4.6524686824076755e-01  4.8996251311205086e-01  4.9631630300570362e-01  4.9896042854358602e-01  4.9969372213400287e-01  4.9987295112368541e-01  4.9993968792122773e-01  4.9994837653406643e-01  4.9994951899378226e-01  4.9994847217695965e-01  4.9994804709535301e-01  4.9994898083282752e-01  4.9995178203245816e-01  4.9995706601898388e-01  4.9996562384773424e-01  4.9997827914578002e-01  4.9999579152496937e-01  5.0001864726717959e-01  5.0004679632022664e-01  5.0007936558870170e-01  5.0011445995929182e-01  5.0014918738665259e-01  5.0018007736066328e-01  5.0020389630774476e-01  5.0021858620651227e-01  5.0022384639449857e-01  5.0022105771527769e-01  5.0021267350705290e-01  5.0020146396971610e-01  5.0018987176076357e-01  5.0017985845023138e-01  5.0017229697787469e-01  5.0016878772291762e-01  5.0016651374001009e-01  5.0017305862987183e-01  5.0016570323851228e-01  5.0018529826106084e-01  5.0012273275024366e-01  4.9994186027693915e-01  5.0003679321833649e-01  4.9505223838820578e-01  5.0468396239367386e-01  4.2488580164890105e-01  6.5854573296878682e-01  -1.9288824524848244e-01  2.5059947076373605e+00  5.1334015434174721e-02  3.7244413081741129e-01  4.9346209144983455e-01  4.6517979646896279e-01  4.8989500189770574e-01  4.9604107974073092e-01  4.9894848820496052e-01  4.9961043448215892e-01  4.9981005947836460e-01  4.9988902988704181e-01  4.9990090185096581e-01  4.9990768382652312e-01  4.9990960667724194e-01  4.9991170715118688e-01  4.9991458578307929e-01  4.9991897657508011e-01  4.9992585956065322e-01  4.9993650583227323e-01  4.9995226217775501e-01  4.9997466234159466e-01  5.0000489868903253e-01  5.0004338840593299e-01  5.0008913639182984e-01  5.0013921020114438e-01  5.0018864497382354e-01  5.0023122181337087e-01  5.0026119876834274e-01  5.0027532620433801e-01  5.0027386794861983e-01  5.0026005421061792e-01  5.0023856693861302e-01  5.0021404044238293e-01  5.0019009254270252e-01  5.0016918545443079e-01  5.0015221843407431e-01  5.0014051272549664e-01  5.0013090456398157e-01  5.0013048416626138e-01  5.0011621708751208e-01  5.0012862511011891e-01  5.0005763454557162e-01  4.9987146266042182e-01  4.9995024513749142e-01  4.9498245186263418e-01  5.0453736810569938e-01  4.2489432856248566e-01  6.5839380480529541e-01  -1.9260060100150211e-01  2.5074895241548396e+00  5.1378323517916630e-02  3.7250228029009430e-01  4.9357000604289020e-01  4.6510942590437832e-01  4.8984652776847293e-01  4.9600009204937362e-01  4.9896922570378166e-01  4.9957643879266317e-01  4.9980423645566846e-01  4.9988198854176957e-01  4.9989379865054678e-01  4.9990107528307920e-01  4.9990098879482509e-01  4.9990096309934445e-01  4.9990098916292086e-01  4.9990196903947415e-01  4.9990552304894259e-01  4.9991327559165943e-01  4.9992745675181549e-01  4.9995121684541149e-01  4.9998706660671349e-01  5.0003678649598648e-01  5.0009965855966476e-01  5.0017123220972037e-01  5.0024279367729729e-01  5.0030274912826733e-01  5.0034056820601314e-01  5.0035140109751086e-01  5.0033763453144953e-01  5.0030666335674512e-01  5.0026725541830686e-01  5.0022682267258212e-01  5.0019025912211990e-01  5.0016017708274296e-01  5.0013700746870027e-01  5.0012135135660729e-01  5.0010934768235427e-01  5.0010743303688954e-01  5.0009207775026099e-01  5.0010372182866702e-01  5.0003106733404545e-01  4.9984744437888412e-01  4.9991926614261128e-01  4.9497523172828439e-01  5.0446966119609604e-01  4.2495117690305484e-01  6.5834180908122952e-01  -1.9238379670849332e-01  2.5089279789065286e+00  5.1403737948628160e-02  3.7248610617083333e-01  4.9366808658566974e-01  4.6507598524014160e-01  4.8984798219379261e-01  4.9600160149905487e-01  4.9897537461699643e-01  4.9956975044812130e-01  4.9981135942116711e-01  4.9988184099207378e-01  4.9989406921249374e-01  4.9989985198114184e-01  4.9989692713582995e-01  4.9989370625937340e-01  4.9988926204252832e-01  4.9988456008204762e-01  4.9988218558707126e-01  4.9988306724949744e-01  4.9989185253057461e-01  4.9991422135787772e-01  4.9995478775005903e-01  5.0001932088472056e-01  5.0010819686253782e-01  5.0021506243077973e-01  5.0032412663341297e-01  5.0041222876608760e-01  5.0045911040220470e-01  5.0045870089593525e-01  5.0042005786682409e-01  5.0035964441116376e-01  5.0029319346259049e-01  5.0023158166755521e-01  5.0018035697045504e-01  5.0014123453097048e-01  5.0011322127886160e-01  5.0009551603445501e-01  5.0008315983256801e-01  5.0008173320309512e-01  5.0006720099031843e-01  5.0007985979028946e-01  5.0000755701883570e-01  4.9982804453404617e-01  4.9989564189327207e-01  4.9497563960876345e-01  5.0441720544161117e-01  4.2500182405276005e-01  6.5830673216231683e-01  -1.9224827169841974e-01  2.5101528039870917e+00  5.1421223205447252e-02  3.7243626638644556e-01  4.9375177160046813e-01  4.6504289700771467e-01  4.8984600618770241e-01  4.9599468792768492e-01  4.9897478109102028e-01  4.9956700193101011e-01  4.9980973362371994e-01  4.9987613326028785e-01  4.9988970337352012e-01  4.9989392757806805e-01  4.9988894579401583e-01  4.9988260051476852e-01  4.9987294319128556e-01  4.9986101013040163e-01  4.9984991300326315e-01  4.9983782281096473e-01  4.9983644572200303e-01  4.9985130704967312e-01  4.9989245380449249e-01  4.9997646576095983e-01  5.0010540704719963e-01  5.0027382806679277e-01  5.0045119963204487e-01  5.0058607329799198e-01  5.0063804899136255e-01  5.0060535640266168e-01  5.0051654101382526e-01  5.0040653626387621e-01  5.0030113417585131e-01  5.0021360434919893e-01  5.0014765939016559e-01  5.0010183025640254e-01  5.0007214065743610e-01  5.0005552296378242e-01  5.0004553537002439e-01  5.0004680850214722e-01  5.0003484000063336e-01  5.0004987982989713e-01  4.9997907080398940e-01  4.9980430848958735e-01  4.9986882256675630e-01  4.9497156819571403e-01  5.0436598341744465e-01  4.2504026596257899e-01  6.5826692490169592e-01  -1.9214919201280484e-01  2.5111685249667226e+00  5.1432810929356677e-02  3.7236852058992193e-01  4.9382401836833179e-01  4.6501459657377858e-01  4.8984832290793801e-01  4.9599260152636399e-01  4.9898000990105196e-01  4.9956867242929281e-01  4.9980978454959701e-01  4.9987508362970468e-01  4.9988904222182018e-01  4.9989181605296079e-01  4.9988512478194214e-01  4.9987545589441829e-01  4.9985973540994777e-01  4.9983907511271147e-01  4.9981458680687135e-01  4.9978053428353575e-01  4.9976239725191246e-01  4.9975040878564136e-01  4.9977983604067949e-01  4.9988552658233343e-01  5.0007357080047166e-01  5.0036094120247232e-01  5.0067396856288360e-01  5.0088391429360835e-01  5.0091410663331026e-01  5.0079590542225672e-01  5.0060964738214209e-01  5.0042208341741412e-01  5.0026755234789444e-01  5.0015509343170439e-01  5.0008056695383774e-01  5.0003550671843566e-01  5.0001107777217524e-01  5.0000128056902848e-01  4.9999813318044845e-01  5.0000551007700345e-01  4.9999869553596360e-01  5.0001809076708659e-01  4.9995041671830359e-01  4.9978131224420225e-01  4.9984425606895033e-01  4.9496854624793679e-01  5.0432175885173380e-01  4.2507616528415931e-01  6.5822740682634573e-01  -1.9205876033668939e-01  2.5120147089880174e+00  5.1440104373186211e-02  3.7229336069557956e-01  4.9388493347863344e-01  4.6498940553918888e-01  4.8985156432343940e-01  4.9599115519724341e-01  4.9898534182614496e-01  4.9957046692340312e-01  4.9981090133756617e-01  4.9987609792047932e-01  4.9989027093966321e-01  4.9989276248778253e-01  4.9988549723718539e-01  4.9987362980012867e-01  4.9985294179160078e-01  4.9982367041210590e-01  4.9978035776582863e-01  4.9971548755440659e-01  4.9966657638541856e-01  4.9957730426168118e-01  4.9957711992255188e-01  4.9968694749003423e-01  4.9996509641846604e-01  5.0052695614853993e-01  5.0112253136163454e-01  5.0142193036713512e-01  5.0132084835084889e-01  5.0099380480614075e-01  5.0063616020753110e-01  5.0034735185690471e-01  5.0014935222660817e-01  5.0002889857543276e-01  4.9996386812179772e-01  4.9993473976378722e-01  4.9992696157813105e-01  4.9993205845627742e-01  4.9994130025927846e-01  4.9995855159527208e-01  4.9995945730146019e-01  4.9998494926385956e-01  4.9992169493253380e-01  4.9975869614802604e-01  4.9982119400274366e-01  4.9496502940844900e-01  5.0428294117138428e-01  4.2510822189813796e-01  6.5818692780843335e-01  -1.9197335900701631e-01  2.5127045029067876e+00  5.1444155976234279e-02  3.7221892330374162e-01  4.9393484509078861e-01  4.6496712428434783e-01  4.8985485869409090e-01  4.9598981381738017e-01  4.9899044908592766e-01  4.9957284256371104e-01  4.9981334231620461e-01  4.9987888250027684e-01  4.9989404074330646e-01  4.9989780980740273e-01  4.9989189571180143e-01  4.9988057154247945e-01  4.9985858086853263e-01  4.9982313204352868e-01  4.9975953753695351e-01  4.9966137265176747e-01  4.9955286777041974e-01  4.9930278029874414e-01  4.9926387822145396e-01  4.9925595873036999e-01  4.9972868930626452e-01  5.0099477691660776e-01  5.0211145756472031e-01  5.0235605979603948e-01  5.0177401637029129e-01  5.0100887982095421e-01  5.0041993307250399e-01  5.0006266417247580e-01  4.9987901749292540e-01  4.9980220283617044e-01  4.9978433911686182e-01  4.9979612733565776e-01  4.9982076462376829e-01  4.9985043819594693e-01  4.9987793687028459e-01  4.9990861118574653e-01  4.9991939287195936e-01  4.9995227352634580e-01  4.9989430950160119e-01  4.9973743424156997e-01  4.9980038568459989e-01  4.9496109109148528e-01  5.0424997534749416e-01  4.2513607892138855e-01  6.5814786435890527e-01  -1.9189292868404834e-01  2.5132512340289308e+00  5.1445847045045130e-02  3.7215210075981803e-01  4.9397411679323033e-01  4.6494811859652813e-01  4.8985808226647148e-01  4.9598877980411954e-01  4.9899525483703883e-01  4.9957558451364087e-01  4.9981659412295321e-01  4.9988300723385437e-01  4.9990010402419777e-01  4.9990670467540316e-01  4.9990468287395257e-01  4.9989826900896722e-01  4.9988198500088160e-01  4.9984976482703147e-01  4.9978123877420716e-01  4.9966385568678118e-01  4.9945952835934132e-01  4.9896255782484933e-01  4.9884935755380888e-01  4.9830779525951147e-01  4.9950765805791603e-01  5.0243038266758633e-01  5.0411903758285603e-01  5.0361814563735985e-01  5.0172102028998522e-01  5.0026307347699894e-01  4.9956738787401650e-01  4.9936044204428798e-01  4.9936847177194588e-01  4.9944737067107908e-01  4.9953965511911214e-01  4.9962590809500235e-01  4.9970038307928577e-01  4.9976355296640190e-01  4.9981380684689436e-01  4.9986012710389288e-01  4.9988183923050328e-01  4.9992253307970996e-01  4.9987006967278863e-01  4.9971877391987174e-01  4.9978278594531733e-01  4.9495695331192574e-01  5.0422355934090568e-01  4.2515896805795594e-01  6.5811321823630209e-01  -1.9182051172227024e-01  2.5136649799714439e+00  5.1445925416879042e-02  3.7209864017370503e-01  4.9400300987933904e-01  4.6493289421370676e-01  4.8986121580138597e-01  4.9598822648432350e-01  4.9899946938730022e-01  4.9957821933694424e-01  4.9981994783212752e-01  4.9988754434137306e-01  4.9990710507428138e-01  4.9991761037563365e-01  4.9992179744773668e-01  4.9992523337043537e-01  4.9992461972377050e-01  4.9991528757070275e-01  4.9987969311449337e-01  4.9978788200045865e-01  4.9952749193133833e-01  4.9888214519130825e-01  4.9872067296263906e-01  4.9687928667357151e-01  5.0033278568507600e-01  5.0584568712365663e-01  5.0714741923602535e-01  5.0412558015315989e-01  4.9945216265072923e-01  4.9766030851139542e-01  4.9751545622610782e-01  4.9801457708668606e-01  4.9856012776286468e-01  4.9897149503497940e-01  4.9925323274870942e-01  4.9944644830401175e-01  4.9958299361612990e-01  4.9968362758293539e-01  4.9975738119374458e-01  4.9981893623299439e-01  4.9985082937368441e-01  4.9989852348994962e-01  4.9985092221333399e-01  4.9970401748154764e-01  4.9976935179436399e-01  4.9495287830364687e-01  5.0420438527414324e-01  4.2517604997952563e-01  6.5808586258649648e-01  -1.9175996520233232e-01  2.5139530517004252e+00  5.1445027837637901e-02  3.7206294015821667e-01  4.9402162288672052e-01  4.6492190390016136e-01  4.8986424897210701e-01  4.9598831304946850e-01  4.9900282638927901e-01  4.9958029832366552e-01  4.9982260505511478e-01  4.9989119886537120e-01  4.9991291922981995e-01  4.9992710715390332e-01  4.9993773408399211e-01  4.9995266146042361e-01  4.9997290273852868e-01  5.0000066021098166e-01  5.0002971927370121e-01  5.0002749410071989e-01  4.9988300992297358e-01  4.9942746970839064e-01  4.9910150284167026e-01  4.9474829988866559e-01  5.0242577157409596e-01  5.0891946163676849e-01  5.0757530702682430e-01  5.0149159037079616e-01  4.9226831968923007e-01  4.9160640984965437e-01  4.9405387523899597e-01  4.9614395745659107e-01  4.9760119173688294e-01  4.9848448799917716e-01  4.9899629142797436e-01  4.9930133399361665e-01  4.9949485626322299e-01  4.9962659358330913e-01  4.9971851266084516e-01  4.9979128010473928e-01  4.9983041358135111e-01  4.9988292608938178e-01  4.9983867390751885e-01  4.9969436013512497e-01  4.9976093679275407e-01  4.9494916523388516e-01  5.0419304339468829e-01  4.2518671658113266e-01  6.5806810410675520e-01  -1.9171468304763972e-01  2.5141206065387416e+00  5.1443664633893806e-02  3.7204774804275331e-01  4.9402990845805028e-01  4.6491545872518519e-01  4.8986715364115174e-01  4.9598914879414968e-01  4.9900510998910180e-01  4.9958144264303395e-01  4.9982384416346520e-01  4.9989272718159999e-01  4.9991533564154017e-01  4.9993113363892328e-01  4.9994470425280296e-01  4.9996506177201511e-01  4.9999533952429459e-01  5.0004132749883679e-01  5.0010261734411121e-01  5.0015336852645753e-01  5.0011122297033184e-01  4.9978335722165396e-01  4.9886686527993046e-01  4.9328846757205014e-01  5.0297755342202954e-01  5.0195752155353690e-01  5.0274793801588580e-01  4.9621034071231546e-01  4.7544610001522702e-01  4.8386814836714037e-01  4.9075909317085209e-01  4.9483517279781053e-01  4.9706194971561096e-01  4.9825620465280712e-01  4.9889292368776234e-01  4.9924869864911703e-01  4.9946454412762398e-01  4.9960739402963061e-01  4.9970552413952640e-01  4.9978206053968133e-01  4.9982361506151202e-01  4.9987767141064687e-01  4.9983459024768617e-01  4.9969062960391386e-01  4.9975809900880341e-01  4.9494604747942633e-01  5.0418984765197850e-01  4.2