<?xml version="1.0"?>
<VTKFile type="UnstructuredGrid"  version="0.1"  >
<UnstructuredGrid>
<Piece  NumberOfPoints="1617" NumberOfCells="3072">
<Points>
<DataArray  type="Float64"  NumberOfComponents="3"  format="ascii">0 0 0  0.03125 0 0  0.0625 0 0  0.09375 0 0  0.125 0 0  0.15625 0 0  0.1875 0 0  0.21875 0 0  0.25 0 0  0.28125 0 0  0.3125 0 0  0.34375 0 0  0.375 0 0  0.40625 0 0  0.4375 0 0  0.46875 0 0  0.5 0 0  0.53125 0 0  0.5625 0 0  0.59375 0 0  0.625 0 0  0.65625 0 0  0.6875 0 0  0.71875 0 0  0.75 0 0  0.78125 0 0  0.8125 0 0  0.84375 0 0  0.875 0 0  0.90625 0 0  0.9375 0 0  0.96875 0 0  1 0 0  1.03125 0 0  1.0625 0 0  1.09375 0 0  1.125 0 0  1.15625 0 0  1.1875 0 0  1.21875 0 0  1.25 0 0  1.28125 0 0  1.3125 0 0  1.34375 0 0  1.375 0 0  1.40625 0 0  1.4375 0 0  1.46875 0 0  1.5 0 0  0 0.03125 0  0.03125 0.03125 0  0.0625 0.03125 0  0.09375 0.03125 0  0.125 0.03125 0  0.15625 0.03125 0  0.1875 0.03125 0  0.21875 0.03125 0  0.25 0.03125 0  0.28125 0.03125 0  0.3125 0.03125 0  0.34375 0.03125 0  0.375 0.03125 0  0.40625 0.03125 0  0.4375 0.03125 0  0.46875 0.03125 0  0.5 0.03125 0  0.53125 0.03125 0  0.5625 0.03125 0  0.59375 0.03125 0  0.625 0.03125 0  0.65625 0.03125 0  0.6875 0.03125 0  0.71875 0.03125 0  0.75 0.03125 0  0.78125 0.03125 0  0.8125 0.03125 0  0.84375 0.03125 0  0.875 0.03125 0  0.90625 0.03125 0  0.9375 0.03125 0  0.96875 0.03125 0  1 0.03125 0  1.03125 0.03125 0  1.0625 0.03125 0  1.09375 0.03125 0  1.125 0.03125 0  1.15625 0.03125 0  1.1875 0.03125 0  1.21875 0.03125 0  1.25 0.03125 0  1.28125 0.03125 0  1.3125 0.03125 0  1.34375 0.03125 0  1.375 0.03125 0  1.40625 0.03125 0  1.4375 0.03125 0  1.46875 0.03125 0  1.5 0.03125 0  0 0.0625 0  0.03125 0.0625 0  0.0625 0.0625 0  0.09375 0.0625 0  0.125 0.0625 0  0.15625 0.0625 0  0.1875 0.0625 0  0.21875 0.0625 0  0.25 0.0625 0  0.28125 0.0625 0  0.3125 0.0625 0  0.34375 0.0625 0  0.375 0.0625 0  0.40625 0.0625 0  0.4375 0.0625 0  0.46875 0.0625 0  0.5 0.0625 0  0.53125 0.0625 0  0.5625 0.0625 0  0.59375 0.0625 0  0.625 0.0625 0  0.65625 0.0625 0  0.6875 0.0625 0  0.71875 0.0625 0  0.75 0.0625 0  0.78125 0.0625 0  0.8125 0.0625 0  0.84375 0.0625 0  0.875 0.0625 0  0.90625 0.0625 0  0.9375 0.0625 0  0.96875 0.0625 0  1 0.0625 0  1.03125 0.0625 0  1.0625 0.0625 0  1.09375 0.0625 0  1.125 0.0625 0  1.15625 0.0625 0  1.1875 0.0625 0  1.21875 0.0625 0  1.25 0.0625 0  1.28125 0.0625 0  1.3125 0.0625 0  1.34375 0.0625 0  1.375 0.0625 0  1.40625 0.0625 0  1.4375 0.0625 0  1.46875 0.0625 0  1.5 0.0625 0  0 0.09375 0  0.03125 0.09375 0  0.0625 0.09375 0  0.09375 0.09375 0  0.125 0.09375 0  0.15625 0.09375 0  0.1875 0.09375 0  0.21875 0.09375 0  0.25 0.09375 0  0.28125 0.09375 0  0.3125 0.09375 0  0.34375 0.09375 0  0.375 0.09375 0  0.40625 0.09375 0  0.4375 0.09375 0  0.46875 0.09375 0  0.5 0.09375 0  0.53125 0.09375 0  0.5625 0.09375 0  0.59375 0.09375 0  0.625 0.09375 0  0.65625 0.09375 0  0.6875 0.09375 0  0.71875 0.09375 0  0.75 0.09375 0  0.78125 0.09375 0  0.8125 0.09375 0  0.84375 0.09375 0  0.875 0.09375 0  0.90625 0.09375 0  0.9375 0.09375 0  0.96875 0.09375 0  1 0.09375 0  1.03125 0.09375 0  1.0625 0.09375 0  1.09375 0.09375 0  1.125 0.09375 0  1.15625 0.09375 0  1.1875 0.09375 0  1.21875 0.09375 0  1.25 0.09375 0  1.28125 0.09375 0  1.3125 0.09375 0  1.34375 0.09375 0  1.375 0.09375 0  1.40625 0.09375 0  1.4375 0.09375 0  1.46875 0.09375 0  1.5 0.09375 0  0 0.125 0  0.03125 0.125 0  0.0625 0.125 0  0.09375 0.125 0  0.125 0.125 0  0.15625 0.125 0  0.1875 0.125 0  0.21875 0.125 0  0.25 0.125 0  0.28125 0.125 0  0.3125 0.125 0  0.34375 0.125 0  0.375 0.125 0  0.40625 0.125 0  0.4375 0.125 0  0.46875 0.125 0  0.5 0.125 0  0.53125 0.125 0  0.5625 0.125 0  0.59375 0.125 0  0.625 0.125 0  0.65625 0.125 0  0.6875 0.125 0  0.71875 0.125 0  0.75 0.125 0  0.78125 0.125 0  0.8125 0.125 0  0.84375 0.125 0  0.875 0.125 0  0.90625 0.125 0  0.9375 0.125 0  0.96875 0.125 0  1 0.125 0  1.03125 0.125 0  1.0625 0.125 0  1.09375 0.125 0  1.125 0.125 0  1.15625 0.125 0  1.1875 0.125 0  1.21875 0.125 0  1.25 0.125 0  1.28125 0.125 0  1.3125 0.125 0  1.34375 0.125 0  1.375 0.125 0  1.40625 0.125 0  1.4375 0.125 0  1.46875 0.125 0  1.5 0.125 0  0 0.15625 0  0.03125 0.15625 0  0.0625 0.15625 0  0.09375 0.15625 0  0.125 0.15625 0  0.15625 0.15625 0  0.1875 0.15625 0  0.21875 0.15625 0  0.25 0.15625 0  0.28125 0.15625 0  0.3125 0.15625 0  0.34375 0.15625 0  0.375 0.15625 0  0.40625 0.15625 0  0.4375 0.15625 0  0.46875 0.15625 0  0.5 0.15625 0  0.53125 0.15625 0  0.5625 0.15625 0  0.59375 0.15625 0  0.625 0.15625 0  0.65625 0.15625 0  0.6875 0.15625 0  0.71875 0.15625 0  0.75 0.15625 0  0.78125 0.15625 0  0.8125 0.15625 0  0.84375 0.15625 0  0.875 0.15625 0  0.90625 0.15625 0  0.9375 0.15625 0  0.96875 0.15625 0  1 0.15625 0  1.03125 0.15625 0  1.0625 0.15625 0  1.09375 0.15625 0  1.125 0.15625 0  1.15625 0.15625 0  1.1875 0.15625 0  1.21875 0.15625 0  1.25 0.15625 0  1.28125 0.15625 0  1.3125 0.15625 0  1.34375 0.15625 0  1.375 0.15625 0  1.40625 0.15625 0  1.4375 0.15625 0  1.46875 0.15625 0  1.5 0.15625 0  0 0.1875 0  0.03125 0.1875 0  0.0625 0.1875 0  0.09375 0.1875 0  0.125 0.1875 0  0.15625 0.1875 0  0.1875 0.1875 0  0.21875 0.1875 0  0.25 0.1875 0  0.28125 0.1875 0  0.3125 0.1875 0  0.34375 0.1875 0  0.375 0.1875 0  0.40625 0.1875 0  0.4375 0.1875 0  0.46875 0.1875 0  0.5 0.1875 0  0.53125 0.1875 0  0.5625 0.1875 0  0.59375 0.1875 0  0.625 0.1875 0  0.65625 0.1875 0  0.6875 0.1875 0  0.71875 0.1875 0  0.75 0.1875 0  0.78125 0.1875 0  0.8125 0.1875 0  0.84375 0.1875 0  0.875 0.1875 0  0.90625 0.1875 0  0.9375 0.1875 0  0.96875 0.1875 0  1 0.1875 0  1.03125 0.1875 0  1.0625 0.1875 0  1.09375 0.1875 0  1.125 0.1875 0  1.15625 0.1875 0  1.1875 0.1875 0  1.21875 0.1875 0  1.25 0.1875 0  1.28125 0.1875 0  1.3125 0.1875 0  1.34375 0.1875 0  1.375 0.1875 0  1.40625 0.1875 0  1.4375 0.1875 0  1.46875 0.1875 0  1.5 0.1875 0  0 0.21875 0  0.03125 0.21875 0  0.0625 0.21875 0  0.09375 0.21875 0  0.125 0.21875 0  0.15625 0.21875 0  0.1875 0.21875 0  0.21875 0.21875 0  0.25 0.21875 0  0.28125 0.21875 0  0.3125 0.21875 0  0.34375 0.21875 0  0.375 0.21875 0  0.40625 0.21875 0  0.4375 0.21875 0  0.46875 0.21875 0  0.5 0.21875 0  0.53125 0.21875 0  0.5625 0.21875 0  0.59375 0.21875 0  0.625 0.21875 0  0.65625 0.21875 0  0.6875 0.21875 0  0.71875 0.21875 0  0.75 0.21875 0  0.78125 0.21875 0  0.8125 0.21875 0  0.84375 0.21875 0  0.875 0.21875 0  0.90625 0.21875 0  0.9375 0.21875 0  0.96875 0.21875 0  1 0.21875 0  1.03125 0.21875 0  1.0625 0.21875 0  1.09375 0.21875 0  1.125 0.21875 0  1.15625 0.21875 0  1.1875 0.21875 0  1.21875 0.21875 0  1.25 0.21875 0  1.28125 0.21875 0  1.3125 0.21875 0  1.34375 0.21875 0  1.375 0.21875 0  1.40625 0.21875 0  1.4375 0.21875 0  1.46875 0.21875 0  1.5 0.21875 0  0 0.25 0  0.03125 0.25 0  0.0625 0.25 0  0.09375 0.25 0  0.125 0.25 0  0.15625 0.25 0  0.1875 0.25 0  0.21875 0.25 0  0.25 0.25 0  0.28125 0.25 0  0.3125 0.25 0  0.34375 0.25 0  0.375 0.25 0  0.40625 0.25 0  0.4375 0.25 0  0.46875 0.25 0  0.5 0.25 0  0.53125 0.25 0  0.5625 0.25 0  0.59375 0.25 0  0.625 0.25 0  0.65625 0.25 0  0.6875 0.25 0  0.71875 0.25 0  0.75 0.25 0  0.78125 0.25 0  0.8125 0.25 0  0.84375 0.25 0  0.875 0.25 0  0.90625 0.25 0  0.9375 0.25 0  0.96875 0.25 0  1 0.25 0  1.03125 0.25 0  1.0625 0.25 0  1.09375 0.25 0  1.125 0.25 0  1.15625 0.25 0  1.1875 0.25 0  1.21875 0.25 0  1.25 0.25 0  1.28125 0.25 0  1.3125 0.25 0  1.34375 0.25 0  1.375 0.25 0  1.40625 0.25 0  1.4375 0.25 0  1.46875 0.25 0  1.5 0.25 0  0 0.28125 0  0.03125 0.28125 0  0.0625 0.28125 0  0.09375 0.28125 0  0.125 0.28125 0  0.15625 0.28125 0  0.1875 0.28125 0  0.21875 0.28125 0  0.25 0.28125 0  0.28125 0.28125 0  0.3125 0.28125 0  0.34375 0.28125 0  0.375 0.28125 0  0.40625 0.28125 0  0.4375 0.28125 0  0.46875 0.28125 0  0.5 0.28125 0  0.53125 0.28125 0  0.5625 0.28125 0  0.59375 0.28125 0  0.625 0.28125 0  0.65625 0.28125 0  0.6875 0.28125 0  0.71875 0.28125 0  0.75 0.28125 0  0.78125 0.28125 0  0.8125 0.28125 0  0.84375 0.28125 0  0.875 0.28125 0  0.90625 0.28125 0  0.9375 0.28125 0  0.96875 0.28125 0  1 0.28125 0  1.03125 0.28125 0  1.0625 0.28125 0  1.09375 0.28125 0  1.125 0.28125 0  1.15625 0.28125 0  1.1875 0.28125 0  1.21875 0.28125 0  1.25 0.28125 0  1.28125 0.28125 0  1.3125 0.28125 0  1.34375 0.28125 0  1.375 0.28125 0  1.40625 0.28125 0  1.4375 0.28125 0  1.46875 0.28125 0  1.5 0.28125 0  0 0.3125 0  0.03125 0.3125 0  0.0625 0.3125 0  0.09375 0.3125 0  0.125 0.3125 0  0.15625 0.3125 0  0.1875 0.3125 0  0.21875 0.3125 0  0.25 0.3125 0  0.28125 0.3125 0  0.3125 0.3125 0  0.34375 0.3125 0  0.375 0.3125 0  0.40625 0.3125 0  0.4375 0.3125 0  0.46875 0.3125 0  0.5 0.3125 0  0.53125 0.3125 0  0.5625 0.3125 0  0.59375 0.3125 0  0.625 0.3125 0  0.65625 0.3125 0  0.6875 0.3125 0  0.71875 0.3125 0  0.75 0.3125 0  0.78125 0.3125 0  0.8125 0.3125 0  0.84375 0.3125 0  0.875 0.3125 0  0.90625 0.3125 0  0.9375 0.3125 0  0.96875 0.3125 0  1 0.3125 0  1.03125 0.3125 0  1.0625 0.3125 0  1.09375 0.3125 0  1.125 0.3125 0  1.15625 0.3125 0  1.1875 0.3125 0  1.21875 0.3125 0  1.25 0.3125 0  1.28125 0.3125 0  1.3125 0.3125 0  1.34375 0.3125 0  1.375 0.3125 0  1.40625 0.3125 0  1.4375 0.3125 0  1.46875 0.3125 0  1.5 0.3125 0  0 0.34375 0  0.03125 0.34375 0  0.0625 0.34375 0  0.09375 0.34375 0  0.125 0.34375 0  0.15625 0.34375 0  0.1875 0.34375 0  0.21875 0.34375 0  0.25 0.34375 0  0.28125 0.34375 0  0.3125 0.34375 0  0.34375 0.34375 0  0.375 0.34375 0  0.40625 0.34375 0  0.4375 0.34375 0  0.46875 0.34375 0  0.5 0.34375 0  0.53125 0.34375 0  0.5625 0.34375 0  0.59375 0.34375 0  0.625 0.34375 0  0.65625 0.34375 0  0.6875 0.34375 0  0.71875 0.34375 0  0.75 0.34375 0  0.78125 0.34375 0  0.8125 0.34375 0  0.84375 0.34375 0  0.875 0.34375 0  0.90625 0.34375 0  0.9375 0.34375 0  0.96875 0.34375 0  1 0.34375 0  1.03125 0.34375 0  1.0625 0.34375 0  1.09375 0.34375 0  1.125 0.34375 0  1.15625 0.34375 0  1.1875 0.34375 0  1.21875 0.34375 0  1.25 0.34375 0  1.28125 0.34375 0  1.3125 0.34375 0  1.34375 0.34375 0  1.375 0.34375 0  1
[...]
<PointData  Scalars="f_33"> 
<DataArray  type="Float64"  Name="f_33"  format="ascii">3.1604029642707421e-05  3.1910484106517763e-05  3.2812849781350990e-05  3.3323022233383943e-05  3.3397838920121521e-05  3.3168892187632860e-05  3.2743344894610967e-05  3.2193996986935420e-05  3.1567613046973989e-05  3.0892132569686174e-05  3.0182844602144591e-05  2.9447543382420041e-05  2.8689993618743425e-05  2.7911938365684540e-05  2.7114105123321687e-05  2.6296626601668820e-05  2.5459167610514180e-05  2.4600932167861558e-05  2.3720650090252043e-05  2.2816603227908728e-05  2.1886731227976695e-05  2.0928840880893301e-05  1.9940923603649374e-05  1.8921560717898549e-05  1.7870369847647215e-05  1.6788425825760974e-05  1.5678584145627826e-05  1.4545648304602368e-05  1.3396351534994234e-05  1.2239159413653558e-05  1.1083931984628613e-05  9.9415037051354751e-06  8.8232450678963419e-06  7.7406596735393152e-06  6.7050576810804974e-06  5.7273086379351228e-06  4.8176747504351570e-06  3.9855679356509650e-06  3.2392149117041764e-06  2.5843482618835727e-06  2.0227016589654422e-06  1.5459330956471351e-06  1.1344349236897612e-06  7.3492799356865022e-07  2.9084432344997417e-07  -3.9105444262210596e-07  -1.3895236396903817e-06  -2.7573440472239928e-06  -2.9124888789706669e-06  3.1705624702640497e-05  3.1694998389442244e-05  3.2789176383939505e-05  3.3369931826412972e-05  3.3432182665849041e-05  3.3170200159157372e-05  3.2718874928446256e-05  3.2153319442445418e-05  3.1518996006684320e-05  3.0841731962547809e-05  3.0134618986909045e-05  2.9403711444639464e-05  2.8651598024217881e-05  2.7879318054785842e-05  2.7087218057316507e-05  2.6275239609100453e-05  2.5442951921444595e-05  2.4589498083778880e-05  2.3713542828380649e-05  2.2813273824448579e-05  2.1886493499781733e-05  2.0930826251309086e-05  1.9944047337721475e-05  1.8924512998492194e-05  1.7871641241237727e-05  1.6786368927082458e-05  1.5671503653039142e-05  1.4531903942846899e-05  1.3374455130531168e-05  1.2207849980175653e-05  1.1042219491813905e-05  9.8886805644748019e-06  8.7588718924801231e-06  7.6645371737346453e-06  6.6172007066092248e-06  5.6279413122559648e-06  4.7072741011650721e-06  3.8649840379889405e-06  3.1099190933755238e-06  2.4487900689211010e-06  1.8848411849207414e-06  1.4115013055897966e-06  1.0112901192800751e-06  6.3113246152400306e-07  2.1593621688940407e-07  -4.3310337526863925e-07  -1.4422557878263962e-06  -2.9804589994284671e-06  -3.0595489481246199e-06  3.1825478194670101e-05  3.1701179078996505e-05  3.2961205554326515e-05  3.3576361175333360e-05  3.3615147843726596e-05  3.3288587514098742e-05  3.2780216790987595e-05  3.2169260504829700e-05  3.1503572781002790e-05  3.0807262428624179e-05  3.0090331253823991e-05  2.9355861080688299e-05  2.8604130197453078e-05  2.7834606585168411e-05  2.7046659433756361e-05  2.6239655777603909e-05  2.5412825282853029e-05  2.4565077804914620e-05  2.3694855790475608e-05  2.2800066646275486e-05  2.1878131600228229e-05  2.0926181304580814e-05  1.9941410786282998e-05  1.8921573861032069e-05  1.7865555927052093e-05  1.6773928671224512e-05  1.5649377800367697e-05  1.4496915274521733e-05  1.3323835751383830e-05  1.2139435177321865e-05  1.0954557457595578e-05  9.7810594723837777e-06  8.6312857424387427e-06  7.5176244350570905e-06  6.4521979736216866e-06  5.4466960220715904e-06  4.5123708773180468e-06  3.6600173118894595e-06  2.8999732646453974e-06  2.2409718307636552e-06  1.6889359938951644e-06  1.2395332851773832e-06  8.7724886834133868e-07  5.4427010197170676e-07  1.8133185146482954e-07  -4.5251448882269467e-07  -1.4965457115481145e-06  -3.1586530271635052e-06  -3.1436622102111729e-06  3.1920377648265455e-05  3.1799528348683474e-05  3.3206555946585988e-05  3.3860443665441101e-05  3.3898683234786584e-05  3.3515498045834636e-05  3.2946232633362104e-05  3.2276809042980966e-05  3.1564539728484539e-05  3.0834453139823126e-05  3.0094975303893003e-05  2.9346641082221502e-05  2.8587299618602832e-05  2.7814504393729957e-05  2.7026270066469095e-05  2.6221065136378101e-05  2.5397528310191856e-05  2.4554140301984314e-05  2.3688946928654531e-05  2.2799384334556130e-05  2.1882252521458911e-05  2.0933883225163312e-05  1.9950530782594977e-05  1.8928971321501799e-05  1.7867232755296025e-05  1.6765318888448734e-05  1.5625766891715828e-05  1.4453908323822921e-05  1.3257781217169431e-05  1.2047731364177175e-05  1.0835809254970429e-05  9.6350959330268406e-06  8.4590811509658112e-06  7.3211819354030900e-06  6.2344580140490726e-06  5.2115260366449021e-06  4.2646797971015231e-06  3.4060098497776175e-06  2.6475037020527072e-06  1.9998357164078865e-06  1.4707824661138117e-06  1.0567837005893464e-06  7.4038265459845388e-07  4.5641008270730420e-07  1.3095441714317083e-07  -5.0231854307419106e-07  -1.5997626340582158e-06  -3.3409065557183913e-06  -3.3319788920809049e-06  3.2093254018895930e-05  3.1996240294747489e-05  3.3489776653091554e-05  3.4183816414769788e-05  3.4232009480466685e-05  3.3810003156050023e-05  3.3188312030863951e-05  3.2460327218320796e-05  3.1696439360485903e-05  3.0924556178786766e-05  3.0153746239813138e-05  2.9383219970382085e-05  2.8609018884452165e-05  2.7826965625021211e-05  2.7033676321124864e-05  2.6226585577929546e-05  2.5403588864506341e-05  2.4562594445929038e-05  2.3701109805709354e-05  2.2815932954984610e-05  2.1903018292637411e-05  2.0957595250178080e-05  1.9974602153916450e-05  1.8949438014952031e-05  1.7878934049396463e-05  1.6762341986841264e-05  1.5602088103597603e-05  1.4404092568908322e-05  1.3177586709865356e-05  1.1934509791115427e-05  1.0688665650797120e-05  9.4548416917780508e-06  8.2480563509506455e-06  7.0830355995776001e-06  5.9739646879404567e-06  4.9344931542863389e-06  3.9779670679922406e-06  3.1176332502030725e-06  2.3667260905120197e-06  1.7370314655342192e-06  1.2367522112626989e-06  8.6103064138791607e-07  5.8807425806029428e-07  3.4373117125614306e-07  4.0851550504927890e-08  -6.0203342135669777e-07  -1.7431979365317417e-06  -3.5362644294091092e-06  -3.5437936996345835e-06  3.2340071497455199e-05  3.2261356064172540e-05  3.3803884556339567e-05  3.4531973312842593e-05  3.4590298411192911e-05  3.4143395384610064e-05  3.3479651748184361e-05  3.2699844664516126e-05  3.1886289508783320e-05  3.1070712947321750e-05  3.0264538655530204e-05  2.9466861250132327e-05  2.8672788078036178e-05  2.7876880469454746e-05  2.7074564920094467e-05  2.6262295733530421e-05  2.5437206703105506e-05  2.4596587295681301e-05  2.3737340833643833e-05  2.2855520998153050e-05  2.1946051743885923e-05  2.1002762264935146e-05  2.0018862944278295e-05  1.8987909358354439e-05  1.7905136565925085e-05  1.6768853831107711e-05  1.5581490592189586e-05  1.4349972182096817e-05  1.3085345104804550e-05  1.1801825820673561e-05  1.0515586278792438e-05  9.2435846290849023e-06  8.0026554987757244e-06  6.8089563996689403e-06  5.6777814473015889e-06  4.6236732674995173e-06  3.6607562476024996e-06  2.8029803698380700e-06  2.0641209627448925e-06  1.4560554670063145e-06  9.8608695146788360e-07  6.4668094353210451e-07  4.1079648219309736e-07  1.9613355231496186e-07  -9.4195938251825614e-08  -7.4901970368326077e-07  -1.9234594214472778e-06  -3.7513887525637420e-06  -3.7740619254520317e-06  3.2638473820072440e-05  3.2571855315842427e-05  3.4143595600625760e-05  3.4895726683797999e-05  3.4960889078724939e-05  3.4496955902605561e-05  3.3799937703870023e-05  3.2976938387461354e-05  3.2118989678356519e-05  3.1261929589627331e-05  3.0420244620922832e-05  2.9593741960406511e-05  2.8777360061803275e-05  2.7964913652793553e-05  2.7150958394551545e-05  2.6331137533098604e-05  2.5501909942055094e-05  2.4659994033812676e-05  2.3801712016808060e-05  2.2922349653240709e-05  2.2015676398218240e-05  2.1073834383775247e-05  2.0087832719073749e-05  1.9048795042317061e-05  1.7949840051894102e-05  1.6788112689972617e-05  1.5566270419046056e-05  1.4292888126767433e-05  1.2981705859382157e-05  1.1650091098600945e-05  1.0317267850951633e-05  9.0027739123999917e-06  7.7253969790311411e-06  6.5026419480372351e-06  5.3506651697245931e-06  4.2845324825380651e-06  3.3186625787827513e-06  2.4670945951980774e-06  1.7433816729425390e-06  1.1586016547466109e-06  7.1826099336081637e-07  4.1154632537190465e-07  2.0636276413116419e-07  1.3885335888938889e-08  -2.6918842353662749e-07  -9.3482642913722270e-07  -2.1336346606435461e-06  -3.9849396891733445e-06  -4.0183774885308525e-06  3.2966677389832807e-05  3.2908118897503643e-05  3.4498257016129347e-05  3.5265989720986429e-05  3.5334664279399741e-05  3.4857652402341089e-05  3.4134241623299475e-05  3.3276131157016723e-05  3.2380225900880560e-05  3.1486237501807219e-05  3.0611607178271788e-05  2.9757288325568620e-05  2.8918550644388823e-05  2.8088879388058242e-05  2.7262267322334984e-05  2.6433746188372277e-05  2.5599236753762283e-05  2.4754996637745717e-05  2.3896870320441166e-05  2.3019447338549742e-05  2.2115304745194311e-05  2.1174636472661580e-05  2.0185686910161229e-05  1.9136354000287845e-05  1.8016901041451268e-05  1.6823019005076394e-05  1.5557999929671358e-05  1.4233083724027180e-05  1.2865969639085786e-05  1.1478295216975426e-05  1.0093062549176633e-05  8.7326674360040652e-06  7.4177568385545083e-06  6.1668385740886898e-06  4.9964437973593263e-06  3.9215992973764394e-06  2.9564098782538454e-06  2.1143569014156211e-06  1.4080996052545294e-06  8.4727906016886722e-07  4.3514230257645230e-07  1.5755687137022955e-07  -2.1946087501267906e-08  -1.9707719628639630e-07  -4.7520439023869321e-07  -1.1492982912515544e-06  -2.3656753997121255e-06  -4.2328955097637445e-06  -4.2735481821729924e-06  3.3306258382500369e-05  3.3253316189514880e-05  3.4855610491123262e-05  3.5633107969973452e-05  3.5702799798392701e-05  3.5214965693028952e-05  3.4470532569667071e-05  3.3584236545043172e-05  3.2656975587990656e-05  3.1731708857964621e-05  3.0828371626015256e-05  2.9949196760711071e-05  2.9090017795641294e-05  2.8244262149501535e-05  2.7405586969871223e-05  2.6568576251650076e-05  2.5728740967439015e-05  2.4882001867568461e-05  2.4023883297757559e-05  2.3148449006937699e-05  2.2247168960074890e-05  2.1308091978829192e-05  2.0316019906373221e-05  1.9254499133430146e-05  1.8109809341304064e-05  1.6875772551597710e-05  1.5557048558915481e-05  1.4169186681786301e-05  1.2735691951353054e-05  1.1283868943406589e-05  9.8411663983528970e-06  8.4328397620780075e-06  7.0809502799463529e-06  5.8043430393965855e-06  4.6191974735389495e-06  3.5397983701712982e-06  2.5792878309221454e-06  1.7500029986387876e-06  1.0632026957814510e-06  5.2672039305784403e-07  1.4141665818221723e-07  -1.0988772877432190e-07  -2.6723319250403953e-07  -4.2787641433093403e-07  -7.0172730786437134e-07  -1.3817607863392400e-06  -2.6106493041454815e-06  -4.4887980026319055e-06  -4.5342643230503191e-06  3.3641553571150675e-05  3.3592716779340701e-05  3.5203410987815173e-05  3.5986966409774265e-05  3.6056160051497597e-05  3.5559217040204991e-05  3.4798099318360706e-05  3.3889541627855386e-05  3.2937240588890214e-05  3.1986670809841514e-05  3.1059764832546704e-05  3.0159968280283702e-05  2.9283725318561570e-05  2.8424546345852844e-05  2.7575882442314427e-05  2.6731964123474204e-05  2.5887964845047114e-05  2.5039548085685461e-05  2.4182086046522362e-05  2.3309369726021978e-05  2.2412027668995138e-05  2.1475918434711211e-05  2.0481615757728022e-05  1.9406664972497629e-05  1.8231529615784214e-05  1.6947525286350514e-05  1.5562040686170942e-05  1.4097672178412388e-05  1.2586414696380138e-05  1.1062847554288800e-05  9.5592259535571896e-06  8.1031363083060597e-06  6.7171012279290375e-06  5.4192702353625535e-06  4.2245410326701951e-06  3.1456919361107349e-06  2.1943030123651108e-06  1.3811159340473752e-06  7.1568336093331297e-07  2.0390089589687516e-07  -1.5565025195154845e-07  -3.8277578545841307e-07  -5.2032753467315239e-07  -6.6809140497075159e-07  -9.3755886748378637e-07  -1.6212701030915758e-06  -2.8589079683682687e-06  -4.7445680354475778e-06  -4.7932484659189478e-06  3.3959011194156094e-05  3.3913304123540897e-05  3.5530055442664769e-05  3.6317426119439835e-05  3.6385427647553943e-05  3.5880977170696032e-05  3.5106854542958834e-05  3.4181171997467311e-05  3.3209636649581869e-05  3.2239608958497588e-05  3.1294592856148989e-05  3.0379082967114300e-05  2.9490092945024152e-05  2.8621272001627225e-05  2.7765921760236992e-05  2.6917947439922669e-05  2.6072176691150504e-05  2.5223996614235781e-05  2.4368737555897370e-05  2.3500186454389765e-05  2.2608653314421423e-05  2.1678070740969138e-05  2.0684006948761198e-05  1.9595557890900155e-05  1.8384222924154815e-05  1.7037800834931816e-05  1.5569040806793260e-05  1.4012231879732660e-05  1.2411624150843219e-05  1.0810539523901792e-05  9.2455717488493594e-06  7.7452116237994249e-06  6.3308436878392049e-06  5.0185525761905795e-06  3.8209335992814815e-06  2.7485622125655935e-06  1.8110154588693125e-06  1.0171927415130174e-06  3.7485605404439007e-07  -1.1195743217133158e-07  -4.4667843281639069e-07  -6.5125972648708019e-07  -7.7069496662115789e-07  -9.0654158371567369e-07  -1.1712594211843154e-06  -1.8567795322729848e-06  -3.1003499070771567e-06  -4.9911019037683963e-06  -5.0419165484669390e-06  3.4246795468386775e-05  3.4203551781376406e-05  3.5824839590420748e-05  3.6614720142425603e-05  3.6681413228823430e-05  3.6171044921665607e-05  3.5387124954043510e-05  3.4448768089459690e-05  3.3463160982329532e-05  3.2479076581718111e-05  3.1521250824517838e-05  3.0595052423535240e-05  2.9698007892589291e-05  2.8823932136645792e-05  2.7966013376959719e-05  2.7117836002084384e-05  2.6273810905793046e-05  2.5428914017032580e-05  2.4578390932460754e-05  2.3716152133906033e-05  2.2833017489486120e-05  2.1911758375070354e-05  2.0922620195946036e-05  1.9822622769557516e-05  1.8568644467229416e-05  1.7143451520762289e-05  1.5570394919256675e-05  1.3903307559430972e-05  1.2203466940472126e-05  1.0523283982196991e-05  8.9015237432012826e-06  7.3648875755506332e-06  5.9314067489280178e-06  4.6136070029089264e-06  3.4209067317100987e-06  2.3612394882397658e-06  1.4420187513647907e-06  6.7031776313895440e-07  5.2250200381116644e-08  -4.0974961945691686e-07  -7.2075043489394029e-07  -9.0436001812362678e-07  -1.0071384306995263e-06  -1.1318465794204913e-06  -1.3915096105978147e-06  -2.0774043361671419e-06  -3.3247987764161021e-06  -5.2188964753557718e-06  -5.2711057690877334e-06  3.4494637851068918e-05  3.4453365736591495e-05  3.6078143807213461e-05  3.6869797986223482e-05  3.6935413553797481e-05  3.6420667131923943e-05  3.5629732594542749e-05  3.4682482395190651e-05  3.3687213843260893e-05  3.2693767217014291e-05  3.1727848778812124e-05  3.0795557515512284e-05  2.9894896380826684e-05  2.9019889581441406e-05  2.8163684983348940e-05  2.7319598485611395e-05  2.6481575120014915e-05  2.5644005932629005e-05  2.4801777253583952e-05  2.3948691375398258e-05  2.3077030733084727e-05  2.2169704693666485e-05  2.1193067400832205e-05  2.0086667485156371e-05  1.8782571206580276e-05  1.7256787018359322e-05  1.5553499701259516e-05  1.3758728487241118e-05  1.1955410169522197e-05  1.0202231826499534e-05  8.5352351227135475e-06  6.9753812463079339e-06  5.5349789429065264e-06  4.2218673321857872e-06  3.0419169531451616e-06  2.0004461496927391e-06  1.1029184854615399e-06  3.5487813249464740e-07  -2.3886740705721918e-07  -6.7710418486440367e-07  -9.6610988190400153e-07  -1.1306755612703270e-06  -1.2184427496922902e-06  -1.3329490666774200e-06  -1.5875162394879289e-06  -2.2727958211988991e-06  -3.5224630719410605e-06  -5.4186505368978706e-06  -5.4717527077144311e-06  3.4693855739956118e-05  3.4654154032451640e-05  3.6281637758424617e-05  3.7074650782883160e-05  3.7139584656702403e-05  3.6621876850637313e-05  3.5826278615197047e-05  3.4873235133233403e-05  3.3871875590357368e-05  3.2872842828513456e-05  3.1902604244606763e-05  3.0967872622701125e-05  3.0067108133108399e-05  2.9194613518099587e-05  2.8343630260902356e-05  2.7507365155486580e-05  2.6679402101377998e-05  2.5853527098102895e-05  2.5023873668915162e-05  2.4183535638395511e-05  2.3326581877741377e-05  2.2437348589321951e-05  2.1483790284064942e-05  2.0379876530981589e-05  1.9016717740052669e-05  1.7363052871461735e-05  1.5501361855354403e-05  1.3568068401378369e-05  1.1669005981093638e-05  9.8601813304023168e-06  8.1670866592720891e-06  6.6008413068844804e-06  5.1666168036772230e-06  3.8675072170765083e-06  2.7063032179031421e-06  1.6863052257032297e-06  8.1160073634417671e-07  8.6717637929508416e-08  -4.8438124096463722e-07  -9.0126912915481760e-07  -1.1710080355514311e-06  -1.3191545868881431e-06  -1.3940393738283357e-06  -1.4996645631816391e-06  -1.7494766099557184e-06  -2.4335860463943848e-06  -3.6844286854391370e-06  -5.5818268039030112e-06  -5.6354959405144749e-06  3.4837467206872384e-05  3.4798973896604246e-05  3.6428510484818104e-05  3.7222630375754468e-05  3.7287321337968628e-05  3.6767894843840251e-05  3.5969555838504449e-05  3.5013155262467107e-05  3.4008413298710031e-05  3.3006545462223900e-05  3.2034586668272581e-05  3.1099740932685074e-05  3.0200884966375675e-05  2.9332649235975121e-05  2.8488511101707082e-05  2.7661800374158261e-05  2.6846044516254971e-05  2.6034741593245941e-05  2.5221249702395847e-05  2.4397627229593324e-05  2.3558359045449476e-05  2.2689041185637490e-05  2.1769234060328544e-05  2.0676774924301963e-05  1.9246163334581501e-05  1.7441004736740993e-05  1.5401245194121182e-05  1.3335831953935166e-05  1.1367036493476679e-05  9.5311181859055006e-06  7.8349613258421792e-06  6.2783097828115480e-06  4.8601447710866364e-06  3.5802657524364783e-06  2.4396711624325034e-06  1.4406365632794980e-06  5.8661186108226486e-07  -1.1833212381730712e-07  -6.7062866162977120e-07  -1.0702504944501556e-06  -1.3246868368242413e-06  -1.4599281961550354e-06  -1.5246993311462023e-06  -1.6232546477789862e-06  -1.8690715398247355e-06  -2.5518527341278672e-06  -3.8031396437156420e-06  -5.7011601183633366e-06  -5.7552015079655414e-06  3.4920343606505605e-05  3.4882707261460060e-05  3.6513702278741753e-05  3.7308749072562654e-05  3.7373618734090692e-05  3.6853541129555059e-05  3.6054013024429270e-05  3.5096120342048776e-05  3.4089939111733858e-05  3.3087029612838782e-05  3.2114783998226437e-05  3.1180732911695827e-05  3.0284058242905270e-05  2.9419670829387364e-05  2.8581312930436317e-05  2.7762565166916843e-05  2.6957171837258110e-05  2.6158784431416168e-05  2.5360547858454577e-05  2.4554151525906469e-05  2.3732592048208147e-05  2.2882034080159185e-05  2.1999512779120527e-05  2.0915786850661967e-05  1.9422813465201921e-05  1.7480750316622088e-05  1.5272406038393547e-05  1.3108113677013289e-05  1.1110719981170895e-05  9.2770186246085619e-06  7.5942346311427911e-06  6.0544497991769290e-06  4.6538527182348266e-06  3.3912273488849863e-06  2.2671959767930252e-06  1.2838855030310905e-06  4.4466956161922023e-07  -2.4645065345940497e-07  -7.8600497345750696e-07  -1.1741052744004431e-06  -1.4184225289573508e-06  -1.5451519287579854e-06  -1.6032118307322541e-06  -1.6969813689036200e-06  -1.9399385843797893e-06  -2.6215543938346193e-06  -3.8728276384921432e-06  -5.7710915521712154e-06  -5.8254019820863702e-06  3.4939352837963252e-05  3.4902220443074777e-05  3.6534103570352496e-05  3.7329929151322012e-05  3.7395376088100634e-05  3.6875594678242212e-05  3.6076182417233091e-05  3.5118279762598102e-05  3.4112076928310294e-05  3.3109240579858224e-05  3.2137283716688944e-05  3.1203849418228462e-05  3.0308230983860767e-05  2.9445446671472955e-05  2.8609348664184215e-05  2.7793635415241351e-05  2.6992182143250347e-05  2.6198785387317921e-05  2.5406652006890471e-05  2.4607762086417430e-05  2.3793847922543859e-05  2.2953151369292977e-05  2.2091269711316482e-05  2.1021335441363164e-05  1.9495279246347822e-05  1.7504227588493618e-05  1.5217031458298525e-05  1.2998388226972840e-05  1.1001601535002512e-05  9.1766473989896976e-06  7.5037909708083948e-06  5.9730625003933887e-06  4.5806137029956489e-06  3.3253875399727210e-06  2.2081460742274446e-06  1.2311112824457240e-06  3.9771427126410679e-07  -2.8801560385481844e-07  -8.2260578656807788e-07  -1.2061910924758697e-06  -1.4464877548755