<?xml version="1.0"?>
<VTKFile type="UnstructuredGrid"  version="0.1"  >
<UnstructuredGrid>
<Piece  NumberOfPoints="1617" NumberOfCells="3072">
<Points>
<DataArray  type="Float64"  NumberOfComponents="3"  format="ascii">0 0 0  0.03125 0 0  0.0625 0 0  0.09375 0 0  0.125 0 0  0.15625 0 0  0.1875 0 0  0.21875 0 0  0.25 0 0  0.28125 0 0  0.3125 0 0  0.34375 0 0  0.375 0 0  0.40625 0 0  0.4375 0 0  0.46875 0 0  0.5 0 0  0.53125 0 0  0.5625 0 0  0.59375 0 0  0.625 0 0  0.65625 0 0  0.6875 0 0  0.71875 0 0  0.75 0 0  0.78125 0 0  0.8125 0 0  0.84375 0 0  0.875 0 0  0.90625 0 0  0.9375 0 0  0.96875 0 0  1 0 0  1.03125 0 0  1.0625 0 0  1.09375 0 0  1.125 0 0  1.15625 0 0  1.1875 0 0  1.21875 0 0  1.25 0 0  1.28125 0 0  1.3125 0 0  1.34375 0 0  1.375 0 0  1.40625 0 0  1.4375 0 0  1.46875 0 0  1.5 0 0  0 0.03125 0  0.03125 0.03125 0  0.0625 0.03125 0  0.09375 0.03125 0  0.125 0.03125 0  0.15625 0.03125 0  0.1875 0.03125 0  0.21875 0.03125 0  0.25 0.03125 0  0.28125 0.03125 0  0.3125 0.03125 0  0.34375 0.03125 0  0.375 0.03125 0  0.40625 0.03125 0  0.4375 0.03125 0  0.46875 0.03125 0  0.5 0.03125 0  0.53125 0.03125 0  0.5625 0.03125 0  0.59375 0.03125 0  0.625 0.03125 0  0.65625 0.03125 0  0.6875 0.03125 0  0.71875 0.03125 0  0.75 0.03125 0  0.78125 0.03125 0  0.8125 0.03125 0  0.84375 0.03125 0  0.875 0.03125 0  0.90625 0.03125 0  0.9375 0.03125 0  0.96875 0.03125 0  1 0.03125 0  1.03125 0.03125 0  1.0625 0.03125 0  1.09375 0.03125 0  1.125 0.03125 0  1.15625 0.03125 0  1.1875 0.03125 0  1.21875 0.03125 0  1.25 0.03125 0  1.28125 0.03125 0  1.3125 0.03125 0  1.34375 0.03125 0  1.375 0.03125 0  1.40625 0.03125 0  1.4375 0.03125 0  1.46875 0.03125 0  1.5 0.03125 0  0 0.0625 0  0.03125 0.0625 0  0.0625 0.0625 0  0.09375 0.0625 0  0.125 0.0625 0  0.15625 0.0625 0  0.1875 0.0625 0  0.21875 0.0625 0  0.25 0.0625 0  0.28125 0.0625 0  0.3125 0.0625 0  0.34375 0.0625 0  0.375 0.0625 0  0.40625 0.0625 0  0.4375 0.0625 0  0.46875 0.0625 0  0.5 0.0625 0  0.53125 0.0625 0  0.5625 0.0625 0  0.59375 0.0625 0  0.625 0.0625 0  0.65625 0.0625 0  0.6875 0.0625 0  0.71875 0.0625 0  0.75 0.0625 0  0.78125 0.0625 0  0.8125 0.0625 0  0.84375 0.0625 0  0.875 0.0625 0  0.90625 0.0625 0  0.9375 0.0625 0  0.96875 0.0625 0  1 0.0625 0  1.03125 0.0625 0  1.0625 0.0625 0  1.09375 0.0625 0  1.125 0.0625 0  1.15625 0.0625 0  1.1875 0.0625 0  1.21875 0.0625 0  1.25 0.0625 0  1.28125 0.0625 0  1.3125 0.0625 0  1.34375 0.0625 0  1.375 0.0625 0  1.40625 0.0625 0  1.4375 0.0625 0  1.46875 0.0625 0  1.5 0.0625 0  0 0.09375 0  0.03125 0.09375 0  0.0625 0.09375 0  0.09375 0.09375 0  0.125 0.09375 0  0.15625 0.09375 0  0.1875 0.09375 0  0.21875 0.09375 0  0.25 0.09375 0  0.28125 0.09375 0  0.3125 0.09375 0  0.34375 0.09375 0  0.375 0.09375 0  0.40625 0.09375 0  0.4375 0.09375 0  0.46875 0.09375 0  0.5 0.09375 0  0.53125 0.09375 0  0.5625 0.09375 0  0.59375 0.09375 0  0.625 0.09375 0  0.65625 0.09375 0  0.6875 0.09375 0  0.71875 0.09375 0  0.75 0.09375 0  0.78125 0.09375 0  0.8125 0.09375 0  0.84375 0.09375 0  0.875 0.09375 0  0.90625 0.09375 0  0.9375 0.09375 0  0.96875 0.09375 0  1 0.09375 0  1.03125 0.09375 0  1.0625 0.09375 0  1.09375 0.09375 0  1.125 0.09375 0  1.15625 0.09375 0  1.1875 0.09375 0  1.21875 0.09375 0  1.25 0.09375 0  1.28125 0.09375 0  1.3125 0.09375 0  1.34375 0.09375 0  1.375 0.09375 0  1.40625 0.09375 0  1.4375 0.09375 0  1.46875 0.09375 0  1.5 0.09375 0  0 0.125 0  0.03125 0.125 0  0.0625 0.125 0  0.09375 0.125 0  0.125 0.125 0  0.15625 0.125 0  0.1875 0.125 0  0.21875 0.125 0  0.25 0.125 0  0.28125 0.125 0  0.3125 0.125 0  0.34375 0.125 0  0.375 0.125 0  0.40625 0.125 0  0.4375 0.125 0  0.46875 0.125 0  0.5 0.125 0  0.53125 0.125 0  0.5625 0.125 0  0.59375 0.125 0  0.625 0.125 0  0.65625 0.125 0  0.6875 0.125 0  0.71875 0.125 0  0.75 0.125 0  0.78125 0.125 0  0.8125 0.125 0  0.84375 0.125 0  0.875 0.125 0  0.90625 0.125 0  0.9375 0.125 0  0.96875 0.125 0  1 0.125 0  1.03125 0.125 0  1.0625 0.125 0  1.09375 0.125 0  1.125 0.125 0  1.15625 0.125 0  1.1875 0.125 0  1.21875 0.125 0  1.25 0.125 0  1.28125 0.125 0  1.3125 0.125 0  1.34375 0.125 0  1.375 0.125 0  1.40625 0.125 0  1.4375 0.125 0  1.46875 0.125 0  1.5 0.125 0  0 0.15625 0  0.03125 0.15625 0  0.0625 0.15625 0  0.09375 0.15625 0  0.125 0.15625 0  0.15625 0.15625 0  0.1875 0.15625 0  0.21875 0.15625 0  0.25 0.15625 0  0.28125 0.15625 0  0.3125 0.15625 0  0.34375 0.15625 0  0.375 0.15625 0  0.40625 0.15625 0  0.4375 0.15625 0  0.46875 0.15625 0  0.5 0.15625 0  0.53125 0.15625 0  0.5625 0.15625 0  0.59375 0.15625 0  0.625 0.15625 0  0.65625 0.15625 0  0.6875 0.15625 0  0.71875 0.15625 0  0.75 0.15625 0  0.78125 0.15625 0  0.8125 0.15625 0  0.84375 0.15625 0  0.875 0.15625 0  0.90625 0.15625 0  0.9375 0.15625 0  0.96875 0.15625 0  1 0.15625 0  1.03125 0.15625 0  1.0625 0.15625 0  1.09375 0.15625 0  1.125 0.15625 0  1.15625 0.15625 0  1.1875 0.15625 0  1.21875 0.15625 0  1.25 0.15625 0  1.28125 0.15625 0  1.3125 0.15625 0  1.34375 0.15625 0  1.375 0.15625 0  1.40625 0.15625 0  1.4375 0.15625 0  1.46875 0.15625 0  1.5 0.15625 0  0 0.1875 0  0.03125 0.1875 0  0.0625 0.1875 0  0.09375 0.1875 0  0.125 0.1875 0  0.15625 0.1875 0  0.1875 0.1875 0  0.21875 0.1875 0  0.25 0.1875 0  0.28125 0.1875 0  0.3125 0.1875 0  0.34375 0.1875 0  0.375 0.1875 0  0.40625 0.1875 0  0.4375 0.1875 0  0.46875 0.1875 0  0.5 0.1875 0  0.53125 0.1875 0  0.5625 0.1875 0  0.59375 0.1875 0  0.625 0.1875 0  0.65625 0.1875 0  0.6875 0.1875 0  0.71875 0.1875 0  0.75 0.1875 0  0.78125 0.1875 0  0.8125 0.1875 0  0.84375 0.1875 0  0.875 0.1875 0  0.90625 0.1875 0  0.9375 0.1875 0  0.96875 0.1875 0  1 0.1875 0  1.03125 0.1875 0  1.0625 0.1875 0  1.09375 0.1875 0  1.125 0.1875 0  1.15625 0.1875 0  1.1875 0.1875 0  1.21875 0.1875 0  1.25 0.1875 0  1.28125 0.1875 0  1.3125 0.1875 0  1.34375 0.1875 0  1.375 0.1875 0  1.40625 0.1875 0  1.4375 0.1875 0  1.46875 0.1875 0  1.5 0.1875 0  0 0.21875 0  0.03125 0.21875 0  0.0625 0.21875 0  0.09375 0.21875 0  0.125 0.21875 0  0.15625 0.21875 0  0.1875 0.21875 0  0.21875 0.21875 0  0.25 0.21875 0  0.28125 0.21875 0  0.3125 0.21875 0  0.34375 0.21875 0  0.375 0.21875 0  0.40625 0.21875 0  0.4375 0.21875 0  0.46875 0.21875 0  0.5 0.21875 0  0.53125 0.21875 0  0.5625 0.21875 0  0.59375 0.21875 0  0.625 0.21875 0  0.65625 0.21875 0  0.6875 0.21875 0  0.71875 0.21875 0  0.75 0.21875 0  0.78125 0.21875 0  0.8125 0.21875 0  0.84375 0.21875 0  0.875 0.21875 0  0.90625 0.21875 0  0.9375 0.21875 0  0.96875 0.21875 0  1 0.21875 0  1.03125 0.21875 0  1.0625 0.21875 0  1.09375 0.21875 0  1.125 0.21875 0  1.15625 0.21875 0  1.1875 0.21875 0  1.21875 0.21875 0  1.25 0.21875 0  1.28125 0.21875 0  1.3125 0.21875 0  1.34375 0.21875 0  1.375 0.21875 0  1.40625 0.21875 0  1.4375 0.21875 0  1.46875 0.21875 0  1.5 0.21875 0  0 0.25 0  0.03125 0.25 0  0.0625 0.25 0  0.09375 0.25 0  0.125 0.25 0  0.15625 0.25 0  0.1875 0.25 0  0.21875 0.25 0  0.25 0.25 0  0.28125 0.25 0  0.3125 0.25 0  0.34375 0.25 0  0.375 0.25 0  0.40625 0.25 0  0.4375 0.25 0  0.46875 0.25 0  0.5 0.25 0  0.53125 0.25 0  0.5625 0.25 0  0.59375 0.25 0  0.625 0.25 0  0.65625 0.25 0  0.6875 0.25 0  0.71875 0.25 0  0.75 0.25 0  0.78125 0.25 0  0.8125 0.25 0  0.84375 0.25 0  0.875 0.25 0  0.90625 0.25 0  0.9375 0.25 0  0.96875 0.25 0  1 0.25 0  1.03125 0.25 0  1.0625 0.25 0  1.09375 0.25 0  1.125 0.25 0  1.15625 0.25 0  1.1875 0.25 0  1.21875 0.25 0  1.25 0.25 0  1.28125 0.25 0  1.3125 0.25 0  1.34375 0.25 0  1.375 0.25 0  1.40625 0.25 0  1.4375 0.25 0  1.46875 0.25 0  1.5 0.25 0  0 0.28125 0  0.03125 0.28125 0  0.0625 0.28125 0  0.09375 0.28125 0  0.125 0.28125 0  0.15625 0.28125 0  0.1875 0.28125 0  0.21875 0.28125 0  0.25 0.28125 0  0.28125 0.28125 0  0.3125 0.28125 0  0.34375 0.28125 0  0.375 0.28125 0  0.40625 0.28125 0  0.4375 0.28125 0  0.46875 0.28125 0  0.5 0.28125 0  0.53125 0.28125 0  0.5625 0.28125 0  0.59375 0.28125 0  0.625 0.28125 0  0.65625 0.28125 0  0.6875 0.28125 0  0.71875 0.28125 0  0.75 0.28125 0  0.78125 0.28125 0  0.8125 0.28125 0  0.84375 0.28125 0  0.875 0.28125 0  0.90625 0.28125 0  0.9375 0.28125 0  0.96875 0.28125 0  1 0.28125 0  1.03125 0.28125 0  1.0625 0.28125 0  1.09375 0.28125 0  1.125 0.28125 0  1.15625 0.28125 0  1.1875 0.28125 0  1.21875 0.28125 0  1.25 0.28125 0  1.28125 0.28125 0  1.3125 0.28125 0  1.34375 0.28125 0  1.375 0.28125 0  1.40625 0.28125 0  1.4375 0.28125 0  1.46875 0.28125 0  1.5 0.28125 0  0 0.3125 0  0.03125 0.3125 0  0.0625 0.3125 0  0.09375 0.3125 0  0.125 0.3125 0  0.15625 0.3125 0  0.1875 0.3125 0  0.21875 0.3125 0  0.25 0.3125 0  0.28125 0.3125 0  0.3125 0.3125 0  0.34375 0.3125 0  0.375 0.3125 0  0.40625 0.3125 0  0.4375 0.3125 0  0.46875 0.3125 0  0.5 0.3125 0  0.53125 0.3125 0  0.5625 0.3125 0  0.59375 0.3125 0  0.625 0.3125 0  0.65625 0.3125 0  0.6875 0.3125 0  0.71875 0.3125 0  0.75 0.3125 0  0.78125 0.3125 0  0.8125 0.3125 0  0.84375 0.3125 0  0.875 0.3125 0  0.90625 0.3125 0  0.9375 0.3125 0  0.96875 0.3125 0  1 0.3125 0  1.03125 0.3125 0  1.0625 0.3125 0  1.09375 0.3125 0  1.125 0.3125 0  1.15625 0.3125 0  1.1875 0.3125 0  1.21875 0.3125 0  1.25 0.3125 0  1.28125 0.3125 0  1.3125 0.3125 0  1.34375 0.3125 0  1.375 0.3125 0  1.40625 0.3125 0  1.4375 0.3125 0  1.46875 0.3125 0  1.5 0.3125 0  0 0.34375 0  0.03125 0.34375 0  0.0625 0.34375 0  0.09375 0.34375 0  0.125 0.34375 0  0.15625 0.34375 0  0.1875 0.34375 0  0.21875 0.34375 0  0.25 0.34375 0  0.28125 0.34375 0  0.3125 0.34375 0  0.34375 0.34375 0  0.375 0.34375 0  0.40625 0.34375 0  0.4375 0.34375 0  0.46875 0.34375 0  0.5 0.34375 0  0.53125 0.34375 0  0.5625 0.34375 0  0.59375 0.34375 0  0.625 0.34375 0  0.65625 0.34375 0  0.6875 0.34375 0  0.71875 0.34375 0  0.75 0.34375 0  0.78125 0.34375 0  0.8125 0.34375 0  0.84375 0.34375 0  0.875 0.34375 0  0.90625 0.34375 0  0.9375 0.34375 0  0.96875 0.34375 0  1 0.34375 0  1.03125 0.34375 0  1.0625 0.34375 0  1.09375 0.34375 0  1.125 0.34375 0  1.15625 0.34375 0  1.1875 0.34375 0  1.21875 0.34375 0  1.25 0.34375 0  1.28125 0.34375 0  1.3125 0.34375 0  1.34375 0.34375 0  1.375 0.34375 0  1
[...]
<PointData  Scalars="f_33"> 
<DataArray  type="Float64"  Name="f_33"  format="ascii">3.1059601626895528e-05  3.1299370984870129e-05  3.2035424763083194e-05  3.2346538239263900e-05  3.2271371791332004e-05  3.1981865305207618e-05  3.1581399379733835e-05  3.1117661003830481e-05  3.0610061591766931e-05  3.0066027259573471e-05  2.9488484674708435e-05  2.8878929908391985e-05  2.8238414416683735e-05  2.7567779679394458e-05  2.6867655033321352e-05  2.6138381072590139e-05  2.5379910165928955e-05  2.4591709961524224e-05  2.3772696645748482e-05  2.2921229924638336e-05  2.2035202783367536e-05  2.1112251514096558e-05  2.0150093148008426e-05  1.9146969675215119e-05  1.8102147331367738e-05  1.7016394688716891e-05  1.5892355535580654e-05  1.4734746921970981e-05  1.3550346297429294e-05  1.2347773762118379e-05  1.1137113145146449e-05  9.9294385471973827e-06  8.7363189520381197e-06  7.5693620605239110e-06  6.4398448257103354e-06  5.3584453214122109e-06  4.3351076897631450e-06  3.3789676890850660e-06  2.4985035887261891e-06  1.7013795487478550e-06  9.9516113756187101e-07  3.8478399503665087e-07  -1.2538208572605782e-07  -5.5459035212164780e-07  -9.2847818426504099e-07  -1.4360225576296037e-06  -2.2131658500183169e-06  -3.4196568540154635e-06  -3.5240040005350400e-06  3.1202648012435450e-05  3.1124585056005496e-05  3.2033388308483204e-05  3.2384717400895410e-05  3.2275115395884524e-05  3.1946982858826927e-05  3.1526650076545081e-05  3.1056874901366790e-05  3.0550774338929440e-05  3.0011730615962127e-05  2.9440508226523016e-05  2.8837610584951552e-05  2.8203662122090643e-05  2.7539324325022617e-05  2.6845153506517720e-05  2.6121464589955644e-05  2.5368201433445734e-05  2.4584818525505483e-05  2.3770194333147811e-05  2.2922608398225267e-05  2.2039818706347762e-05  2.1119269684631247e-05  2.0158442121017625e-05  1.9155325429694147e-05  1.8108956619148313e-05  1.7019940820448370e-05  1.5890858061445937e-05  1.4726477171872471e-05  1.3533736793388623e-05  1.2321502338262844e-05  1.1100150533004131e-05  9.8810578267246192e-06  8.6760735077890988e-06  7.4970435271098945e-06  6.3554344767898416e-06  5.2620709885730570e-06  4.2270202564125264e-06  3.2595463418697387e-06  2.3683271010425971e-06  1.5613727059928865e-06  8.4702470180916150e-07  2.3164467151433744e-07  -2.7712725488662521e-07  -6.9430795628011626e-07  -1.0370003632603289e-06  -1.4926329010854408e-06  -2.2467803525179337e-06  -3.5975030810836000e-06  -3.6224425546945647e-06  3.1402491321351668e-05  3.1201667801550578e-05  3.2242048415220557e-05  3.2578325168831455e-05  3.2407713764421336e-05  3.2001706440412550e-05  3.1530286513009001e-05  3.1030442810063390e-05  3.0509380745061932e-05  2.9964604942960660e-05  2.9392860339891613e-05  2.8792312035017462e-05  2.8162290987173443e-05  2.7502760681720977e-05  2.6813908959371105e-05  2.6095863360499612e-05  2.5348468366358560e-05  2.4571096398349585e-05  2.3762499212213963e-05  2.2920730944472647e-05  2.2043187253293362e-05  2.1126803560721758e-05  2.0168435335516409e-05  1.9165404286914053e-05  1.8116144139433937e-05  1.7020835594619603e-05  1.5881902873011373e-05  1.4704266237395709e-05  1.3495300852520907e-05  1.2264520959126041e-05  1.1023064889100047e-05  9.7830843651594551e-06  8.5571406569193593e-06  7.3576850951801280e-06  6.1966773057828834e-06  5.0853499941221474e-06  4.0341598259446701e-06  3.0528336366596323e-06  2.1507726845217107e-06  1.3371517662815599e-06  6.2250394196427096e-07  1.6339102845732670e-08  -4.6807540743659134e-07  -8.4309538846366014e-07  -1.1210995245239218e-06  -1.5264477486829164e-06  -2.2665590155755103e-06  -3.7012801449978950e-06  -3.6174305615573507e-06  3.1583246424570405e-05  3.1376090242746556e-05  3.2530095294408163e-05  3.2856431931034246e-05  3.2644879831040951e-05  3.2162637131185424e-05  3.1630184241578056e-05  3.1083941746447589e-05  3.0532522441221020e-05  2.9969236953875809e-05  2.9387109616843453e-05  2.8781509597532908e-05  2.8149905292564875e-05  2.7491088905554707e-05  2.6804543632568950e-05  2.6089991033348668e-05  2.5347038180692996e-05  2.4574877937620259e-05  2.3772037388016344e-05  2.2936206743345688e-05  2.2064207006768915e-05  2.1152162408336854e-05  2.0195923694359470e-05  1.9191735767723759e-05  1.8137066458687382e-05  1.7031439929558657e-05  1.5877086141681289e-05  1.4679251476869242e-05  1.3446105762455718e-05  1.2188288112300008e-05  1.0918214652708192e-05  9.6493014580528448e-06  8.3952409644356981e-06  7.1694251640438828e-06  5.9845685726375145e-06  4.8525310797033265e-06  3.7843720163210855e-06  2.7905403377716833e-06  1.8814685185925724e-06  1.0678926435214183e-06  3.6265176088290846e-07  -2.2178510027818160e-07  -6.6939023222292894e-07  -9.9304438938193609e-07  -1.2136839287591161e-06  -1.5810567894937794e-06  -2.3298415610700958e-06  -3.8079212398369779e-06  -3.7156742584585221e-06  3.1834677237242300e-05  3.1642682869045645e-05  3.2854851539021507e-05  3.3180001205251682e-05  3.2941763940145486e-05  3.2399070989261506e-05  3.1808856664049225e-05  3.1210848139732498e-05  3.0620604331391856e-05  3.0029608456604562e-05  2.9428827519864976e-05  2.8811274753569348e-05  2.8172549033897807e-05  2.7510084258850439e-05  2.6822454604721250e-05  2.6108809444053534e-05  2.5368399857355416e-05  2.4600153734491712e-05  2.3802291349143680e-05  2.2972020211432845e-05  2.2105390220019457e-05  2.1197413674510144e-05  2.0242538877092851e-05  1.9235494486487108e-05  1.8172399654405945e-05  1.7051906955062487e-05  1.5876083397816968e-05  1.4650790674533615e-05  1.3385481365280374e-05  1.2092504373792737e-05  1.0786129840512434e-05  9.4815280403984746e-06  8.1938892576888554e-06  6.9377902214661280e-06  5.7268469795227644e-06  4.5736304551804034e-06  3.4898528207130423e-06  2.4867090210818597e-06  1.5756209032643750e-06  7.6865398887475666e-07  8.0266950781324013e-08  -4.7565880834062925e-07  -8.8308237640948419e-07  -1.1588897911338583e-06  -1.3343627296132774e-06  -1.6770614148266250e-06  -2.4327792473887903e-06  -3.9346486831485375e-06  -3.8475311922529228e-06  3.2148017348099714e-05  3.1967467236192743e-05  3.3206387222181857e-05  3.3532711642012446e-05  3.3273467809775684e-05  3.2684852891852671e-05  3.2044212219774082e-05  3.1396657754412767e-05  3.0765565173845123e-05  3.0142465419604905e-05  2.9518011525025052e-05  2.8883663911868428e-05  2.8233543979243844e-05  2.7563820627436437e-05  2.6872134236984636e-05  2.6157000822635986e-05  2.5417262535706693e-05  2.4651548124988667e-05  2.3857738791177038e-05  2.3032488472566262e-05  2.2170912072794663e-05  2.1266606888787444e-05  2.0312172049886983e-05  1.9300297408351884e-05  1.8225295700945818e-05  1.7084720699406059e-05  1.5880591427811832e-05  1.4619840630550673e-05  1.3313887881985693e-05  1.1977538649448779e-05  1.0627576378356289e-05  9.2814071196147349e-06  7.9559996719405851e-06  6.6672209291158786e-06  5.4295662579453916e-06  4.2562131549057146e-06  3.1593645071293494e-06  2.1507317829671946e-06  1.2423697012034745e-06  4.4707696159988492e-07  -2.2007236990791244e-07  -7.4527544725009226e-07  -1.1143075336298585e-06  -1.3490413694272965e-06  -1.4896282968964152e-06  -1.8145285456796828e-06  -2.5740660528288011e-06  -4.0897451689889943e-06  -4.0097445935628680e-06  3.2500416370202629e-05  3.2326845887672382e-05  3.3578272806244455e-05  3.3903223601989298e-05  3.3625229632844787e-05  3.3000578640611367e-05  3.2317119302857330e-05  3.1625611481348991e-05  3.0955605569276986e-05  3.0299927636536822e-05  2.9649973272127476e-05  2.8996405771795462e-05  2.8332381113980604e-05  2.7653045877400902e-05  2.6955209016628284e-05  2.6236782151451724e-05  2.5496213717251380e-05  2.4731861344746095e-05  2.3941302691607839e-05  2.3120638072904943e-05  2.2263935961783727e-05  2.1363074764221634e-05  2.0408276433183569e-05  1.9389521414471438e-05  1.8298714732959883e-05  1.7132044535343523e-05  1.5891720639199729e-05  1.4586460753319320e-05  1.3230627973992705e-05  1.1842450234694680e-05  1.0441969123043653e-05  9.0492584557697671e-06  7.6831984557862359e-06  6.3608526523218489e-06  5.0973603230265925e-06  3.9061930986135756e-06  2.7996846543142993e-06  1.7896455426006158e-06  8.8824207675911938e-07  1.0831550682203659e-07  -5.3534603292064084e-07  -1.0300411854350083e-06  -1.3641338932163070e-06  -1.5642004316511623e-06  -1.6770005056102066e-06  -1.9876025984711288e-06  -2.7480545792451640e-06  -4.2716050921271068e-06  -4.1968939277301569e-06  3.2871621980263074e-05  3.2702293872712500e-05  3.3959639445022246e-05  3.4280644741080353e-05  3.3985543660951470e-05  3.3331441133578420e-05  3.2612175676154971e-05  3.1883146391165093e-05  3.1178269421788717e-05  3.0492224441002850e-05  2.9817499636221034e-05  2.9144528004097954e-05  2.8465936548891292e-05  2.7776116525226445e-05  2.7071194340910859e-05  2.6348550167191389e-05  2.5606296119677568e-05  2.4842596165282980e-05  2.4054830683800155e-05  2.3238636680783971e-05  2.2387005709317578e-05  2.1489805845219046e-05  2.0534237606757800e-05  1.9506660981431206e-05  1.8395723042565822e-05  1.7195904371351536e-05  1.5910049851451257e-05  1.4549793268600180e-05  1.3133853186844339e-05  1.1685123085715286e-05  1.0227699133632703e-05  8.7846170567380382e-06  7.3765575258776970e-06  6.0214165948296733e-06  4.7344958596928099e-06  3.5290490034261130e-06  2.4170321188046734e-06  1.4098427171892436e-06  5.1921218283873581e-07  -2.4258090785106684e-07  -8.6167451079106335e-07  -1.3270000795871778e-06  -1.6296292877755218e-06  -1.8000803554447608e-06  -1.8898492720183130e-06  -2.1880654990271209e-06  -2.9474523451065123e-06  -4.4754303881162460e-06  -4.4041436738477422e-06  3.3245159505332381e-05  3.3078523659863801e-05  3.4338554723147553e-05  3.4654214947584821e-05  3.4343702559283787e-05  3.3665131353244034e-05  3.2916305372676013e-05  3.2156026978889509e-05  3.1421326614963397e-05  3.0708719613749447e-05  3.0011767265341086e-05  2.9321027891134273e-05  2.8628885479292491e-05  2.7929194985230652e-05  2.7217531880288226e-05  2.6490813644045797e-05  2.5746875906388141e-05  2.4983782340308846e-05  2.4198878401664741e-05  2.3387530094195774e-05  2.2541744164067963e-05  2.1649137871209660e-05  2.0693100358162258e-05  1.9655084664595942e-05  1.8519205354153065e-05  1.7277766242973569e-05  1.5935058857743856e-05  1.4507458721497861e-05  1.3020091018561829e-05  1.1502063019893665e-05  9.9822574976329577e-06  8.4866613098496746e-06  7.0372606931541507e-06  5.6520722359204510e-06  4.3458191557352679e-06  3.1308631447773781e-06  2.0181986462037885e-06  1.0182983069622579e-06  1.4199020757189401e-07  -5.9944404609717293e-07  -1.1934297383501231e-06  -1.6306991875331302e-06  -1.9048171157148063e-06  -2.0494377374551093e-06  -2.1194308893158435e-06  -2.4064962947313893e-06  -3.1636022147543246e-06  -4.6938397676359877e-06  -4.6246539760719468e-06  3.3607077434075365e-05  3.3442259251079300e-05  3.4703381702788073e-05  3.5013346205291606e-05  3.4689336959244862e-05  3.3990543169388141e-05  3.3217692218448669e-05  3.2432039497567696e-05  3.1672902811156160e-05  3.0938340067403214e-05  3.0222858700202388e-05  2.9517312689139794e-05  2.8813998943068665e-05  2.8106388453260947e-05  2.7389592246938745e-05  2.6660098531136140e-05  2.5915489114934981e-05  2.5153787192576329e-05  2.4372485134352541e-05  2.3566961200999173e-05  2.2728511748169468e-05  2.1842401057181546e-05  2.0887275331351778e-05  1.9837823737462071e-05  1.8671614822213653e-05  1.7378093727751053e-05  1.5964501060311865e-05  1.4454957621145874e-05  1.2883943870054481e-05  1.1288549909383428e-05  9.7028350601582048e-06  8.1551437061773890e-06  6.6677160015155327e-06  5.2575754655674245e-06  3.9379005922326855e-06  2.7194058359829892e-06  1.6115614379633693e-06  6.2349677986799903e-07  -2.3518121403373534e-07  -9.5441996494049342e-07  -1.5230509574320052e-06  -1.9335362784302426e-06  -2.1815766378676551e-06  -2.3032490188715986e-06  -2.3558351640352125e-06  -2.6326923455717200e-06  -3.3868157125955376e-06  -4.9179140863362666e-06  -4.8499426325137056e-06  3.3945208819523279e-05  3.3781718442664986e-05  3.5043211088789138e-05  3.5347830584769208e-05  3.5012413014921095e-05  3.4297220261631919e-05  3.3505281730470203e-05  3.2699659683775203e-05  3.1921381251483273e-05  3.1169722039763698e-05  3.0439998330920744e-05  2.9723410811422494e-05  2.9012254122941212e-05  2.8299718884314308e-05  2.7580502784705075e-05  2.6850661445864893e-05  2.6107484406684414e-05  2.5348928144280255e-05  2.4572765907218850e-05  2.3774694101824072e-05  2.2945830106495804e-05  2.2069278971762857e-05  2.1117991263594077e-05  2.0057198060544725e-05  1.8854568781714073e-05  1.7495662805527965e-05  1.5993528100570944e-05  1.4385035103776377e-05  1.2718091272125711e-05  1.1039374500827180e-05  9.3876173689561046e-06  7.7919591972852530e-06  6.2731434342116641e-06  4.8457224908527607e-06  3.5202619380189708e-06  2.3051346998446883e-06  1.2078696844246994e-06  2.3601810222216379e-07  -6.0215221857855402e-07  -1.2978444922907311e-06  -1.8412200910594435e-06  -2.2262501018360396e-06  -2.4503653262439998e-06  -2.5514661843373184e-06  -2.5885539925560289e-06  -2.8560496429151934e-06  -3.6068390366306860e-06  -5.1378957813610972e-06  -5.0705621833453852e-06  3.4248839351413326e-05  3.4086400929674780e-05  3.5348014563222367e-05  3.5648042021191087e-05  3.5303365925046947e-05  3.4575261190588919e-05  3.3768629149459126e-05  3.2947895688995508e-05  3.2155384675590121e-05  3.1391324001105484e-05  3.0651716782006201e-05  2.9928115504109043e-05  2.9212878537751060e-05  2.8499008122742553e-05  2.7780843889332805e-05  2.7054004730513685e-05  2.6315403021068698e-05  2.5562795631336747e-05  2.4794220784552462e-05  2.4005855757543039e-05  2.3189468963164225e-05  2.2326689618547674e-05  2.1384270245298206e-05  2.0314101749320286e-05  1.9068091295071428e-05  1.7626427776217183e-05  1.6013532776911954e-05  1.4287309030234346e-05  1.2514158598919753e-05  1.0750754577340923e-05  9.0382096785913678e-06  7.4035603885124325e-06  5.8636539731451765e-06  4.4289644630007139e-06  3.1065316215051527e-06  1.9019586333734009e-06  8.2069698932983338e-07  -1.3125897199914169e-07  -9.4687696077650608e-07  -1.6184568702467435e-06  -2.1372685944395805e-06  -2.4984854000130734e-06  -2.7008595925697497e-06  -2.7836176025833228e-06  -2.8069661260802535e-06  -3.0659850735770085e-06  -3.8133591995222167e-06  -5.3438238290416464e-06  -5.2767658929880228e-06  3.4508615122383174e-05  3.4347061396230143e-05  3.5608784545036957e-05  3.5905161956861079e-05  3.5553327555197541e-05  3.4815459395893598e-05  3.3997983791637225e-05  3.3166367604110265e-05  3.2363929668057884e-05  3.1591647767825547e-05  3.0846111771244843e-05  3.0119227287952745e-05  2.9403490657084460e-05  2.8691830540638471e-05  2.7978336465718648e-05  2.7258251232724839e-05  2.6528057837308670e-05  2.5785142511985978e-05  2.5027551376694556e-05  2.4251730166098345e-05  2.3451039441172418e-05  2.2606850601103940e-05  2.1680996516794988e-05  2.0606421582774670e-05  1.9308901759739683e-05  1.7761624231561876e-05  1.6011030903728293e-05  1.4149133375575561e-05  1.2265642585392135e-05  1.0424340153181237e-05  8.6636140714453939e-06  7.0042193478242763e-06  5.4565696564160630e-06  4.0258519482428922e-06  2.7152011933851707e-06  1.5275067497751588e-06  4.6638562183540629e-07  -4.6342587865017459e-07  -1.2558296464973702e-06  -1.9039258277536055e-06  -2.3997852159940750e-06  -2.7394440624211274e-06  -2.9225945247822186e-06  -2.9893816116100636e-06  -3.0008279829146984e-06  -3.2523944708418373e-06  -3.9965106656286397e-06  -5.5261049951472820e-06  -5.4591166026415672e-06  3.4716591288454937e-05  3.4555799092305710e-05  3.5817718249245235e-05  3.6111438434193851e-05  3.5754415293140578e-05  3.5009575488667669e-05  3.4184551746536626e-05  3.3345593694363934e-05  3.2536776416372832e-05  3.1759663586169682e-05  3.1011343172204986e-05  3.0284072463825139e-05  2.9570562464728185e-05  2.8863808301157358e-05  2.8157827452787798e-05  2.7447665336645760e-05  2.6729480638651699e-05  2.6000260082486846e-05  2.5257655481847869e-05  2.4497772452840962e-05  2.3715865772414283e-05  2.2894282751767592e-05  2.1995369707864707e-05  2.0924914964796248e-05  1.9566299382297533e-05  1.7885358602526670e-05  1.5968475829926751e-05  1.3960288822017933e-05  1.1974979393397062e-05  1.0074240690701404e-05  8.2856803629231311e-06  6.6195095231162161e-06  5.0782125138979666e-06  3.6616195525280933e-06  2.3694613949183763e-06  1.2025540571376054e-06  1.6327925833542814e-07  -7.4438119584263059e-07  -1.5148503165662156e-06  -2.1416772956108027e-06  -2.6174105071929209e-06  -2.9386292047672862e-06  -3.1056361464280879e-06  -3.1591724440574955e-06  -3.1607837822737874e-06  -3.4061293283753347e-06  -4.1473690930961127e-06  -5.6760378971582352e-06  -5.6090321804180390e-06  3.4866360703288745e-05  3.4706214130565495e-05  3.5968435462994513e-05  3.6260465133502916e-05  3.5900054015076725e-05  3.5150683925872418e-05  3.4320875370553967e-05  3.3477429467559441e-05  3.2664963495602229e-05  3.1885471829486869e-05  3.1136438622193980e-05  3.0410441249424394e-05  2.9700445969923090e-05  2.8999630178404100e-05  2.8302129423351177e-05  2.7603047986069216e-05  2.6898520212293634e-05  2.6185416700028105e-05  2.5460920806479988e-05  2.4720428025211951e-05  2.3959702940518035e-05  2.3161923129658110e-05  2.2300048728288094e-05  2.1242224989898929e-05  1.9813775039633913e-05  1.7975511231483995e-05  1.5873297808144100e-05  1.3726493822122886e-05  1.1666850596022599e-05  9.7365535645095621e-06  7.9442481256884227e-06  6.2880794580587356e-06  4.7636149428109686e-06  3.3668554168003156e-06  2.0954805636964140e-06  9.4926505897503365e-07  -6.9902721379583397e-08  -9.5826971068595462e-07  -1.7103963769479969e-06  -2.3199787808283689e-06  -2.7797765093711074e-06  -3.0866563311786051e-06  -3.2412748711401634e-06  -3.2847291846019728e-06  -3.2788750348997954e-06  -3.5194643055213898e-06  -4.2584135721960130e-06  -5.7862839112296583e-06  -5.7192651421537674e-06  3.4953212080711854e-05  3.4793585315968501e-05  3.6056199927772263e-05  3.6347452539908659e-05  3.5985294339899325e-05  3.5233537523974827e-05  3.4401259117211227e-05  3.3555585299731722e-05  3.2741461457465925e-05  3.1961144146591738e-05  3.1212376121924125e-05  3.0487963543744417e-05  2.9781085210548814e-05  2.9085114097099092e-05  2.8394380262769823e-05  2.7704198275915554e-05  2.7010935475167907e-05  2.6311720115021056e-05  2.5603722345837041e-05  2.4882205039002392e-05  2.4141547351865053e-05  2.3365235853060004e-05  2.2543011767832125e-05  2.1494701367425561e-05  2.0001934693708731e-05  1.8022207228227448e-05  1.5746086805178037e-05  1.3496156765282817e-05  1.1405166248408618e-05  9.4757928624361666e-06  7.6967616673437003e-06  6.0580855385564646e-06  4.5520258846709730e-06  3.1731848008216028e-06  1.9186854988201808e-06  7.8815215607305322e-07  -2.1649283476073258e-07  -1.0914051064327948e-06  -1.8310702025318946e-06  -2.4291644595481120e-06  -2.8784998236175484e-06  -3.1760647985654305e-06  -3.3226920489689459e-06  -3.3596683979338630e-06  -3.3490115577713801e-06  -3.5865205920310544e-06  -4.3239316269138304e-06  -5.8512677080581500e-06  -5.7843046077852818e-06  3.4974274713871057e-05  3.4815028793760092e-05  3.6078108880140583e-05  3.6369455906863738e-05  3.6007083515173167e-05  3.5254888748147123e-05  3.4422160181508394e-05  3.3576119023304089e-05  3.2761816050852720e-05  3.1981582990549646e-05  3.1233246645949769e-05  3.0509690154661761e-05  2.9804171032379341e-05  2.9110140256565935e-05  2.8422012568178147e-05  2.7735200991054151e-05  2.7046193928033572e-05  2.6352273074463572e-05  2.5650711696105586e-05  2.4937149882313448e-05  2.4204806553570704e-05  2.3439298097037652e-05  2.2638802080161246e-05  2.1605046276616254e-05  2.0078884961300651e-05  1.8048717797723008e-05  1.5691627346915196e-05  1.3385650362025506e-05  1.1294171694302178e-05  9.3729540550656262e-06  7.6037631898407735e-06  5.9744193038646675e-06  4.4769292570025597e-06  3.1058643372458580e-06  1.8583848103328039e-06  7.3419357863051173e-07  -2.6469098733006736e-07  -1.1343351943630695e-06  -1.8691586567476842e-06  -