<?xml version="1.0"?>
<VTKFile type="UnstructuredGrid"  version="0.1"  >
<UnstructuredGrid>
<Piece  NumberOfPoints="1617" NumberOfCells="3072">
<Points>
<DataArray  type="Float64"  NumberOfComponents="3"  format="ascii">0 0 0  0.03125 0 0  0.0625 0 0  0.09375 0 0  0.125 0 0  0.15625 0 0  0.1875 0 0  0.21875 0 0  0.25 0 0  0.28125 0 0  0.3125 0 0  0.34375 0 0  0.375 0 0  0.40625 0 0  0.4375 0 0  0.46875 0 0  0.5 0 0  0.53125 0 0  0.5625 0 0  0.59375 0 0  0.625 0 0  0.65625 0 0  0.6875 0 0  0.71875 0 0  0.75 0 0  0.78125 0 0  0.8125 0 0  0.84375 0 0  0.875 0 0  0.90625 0 0  0.9375 0 0  0.96875 0 0  1 0 0  1.03125 0 0  1.0625 0 0  1.09375 0 0  1.125 0 0  1.15625 0 0  1.1875 0 0  1.21875 0 0  1.25 0 0  1.28125 0 0  1.3125 0 0  1.34375 0 0  1.375 0 0  1.40625 0 0  1.4375 0 0  1.46875 0 0  1.5 0 0  0 0.03125 0  0.03125 0.03125 0  0.0625 0.03125 0  0.09375 0.03125 0  0.125 0.03125 0  0.15625 0.03125 0  0.1875 0.03125 0  0.21875 0.03125 0  0.25 0.03125 0  0.28125 0.03125 0  0.3125 0.03125 0  0.34375 0.03125 0  0.375 0.03125 0  0.40625 0.03125 0  0.4375 0.03125 0  0.46875 0.03125 0  0.5 0.03125 0  0.53125 0.03125 0  0.5625 0.03125 0  0.59375 0.03125 0  0.625 0.03125 0  0.65625 0.03125 0  0.6875 0.03125 0  0.71875 0.03125 0  0.75 0.03125 0  0.78125 0.03125 0  0.8125 0.03125 0  0.84375 0.03125 0  0.875 0.03125 0  0.90625 0.03125 0  0.9375 0.03125 0  0.96875 0.03125 0  1 0.03125 0  1.03125 0.03125 0  1.0625 0.03125 0  1.09375 0.03125 0  1.125 0.03125 0  1.15625 0.03125 0  1.1875 0.03125 0  1.21875 0.03125 0  1.25 0.03125 0  1.28125 0.03125 0  1.3125 0.03125 0  1.34375 0.03125 0  1.375 0.03125 0  1.40625 0.03125 0  1.4375 0.03125 0  1.46875 0.03125 0  1.5 0.03125 0  0 0.0625 0  0.03125 0.0625 0  0.0625 0.0625 0  0.09375 0.0625 0  0.125 0.0625 0  0.15625 0.0625 0  0.1875 0.0625 0  0.21875 0.0625 0  0.25 0.0625 0  0.28125 0.0625 0  0.3125 0.0625 0  0.34375 0.0625 0  0.375 0.0625 0  0.40625 0.0625 0  0.4375 0.0625 0  0.46875 0.0625 0  0.5 0.0625 0  0.53125 0.0625 0  0.5625 0.0625 0  0.59375 0.0625 0  0.625 0.0625 0  0.65625 0.0625 0  0.6875 0.0625 0  0.71875 0.0625 0  0.75 0.0625 0  0.78125 0.0625 0  0.8125 0.0625 0  0.84375 0.0625 0  0.875 0.0625 0  0.90625 0.0625 0  0.9375 0.0625 0  0.96875 0.0625 0  1 0.0625 0  1.03125 0.0625 0  1.0625 0.0625 0  1.09375 0.0625 0  1.125 0.0625 0  1.15625 0.0625 0  1.1875 0.0625 0  1.21875 0.0625 0  1.25 0.0625 0  1.28125 0.0625 0  1.3125 0.0625 0  1.34375 0.0625 0  1.375 0.0625 0  1.40625 0.0625 0  1.4375 0.0625 0  1.46875 0.0625 0  1.5 0.0625 0  0 0.09375 0  0.03125 0.09375 0  0.0625 0.09375 0  0.09375 0.09375 0  0.125 0.09375 0  0.15625 0.09375 0  0.1875 0.09375 0  0.21875 0.09375 0  0.25 0.09375 0  0.28125 0.09375 0  0.3125 0.09375 0  0.34375 0.09375 0  0.375 0.09375 0  0.40625 0.09375 0  0.4375 0.09375 0  0.46875 0.09375 0  0.5 0.09375 0  0.53125 0.09375 0  0.5625 0.09375 0  0.59375 0.09375 0  0.625 0.09375 0  0.65625 0.09375 0  0.6875 0.09375 0  0.71875 0.09375 0  0.75 0.09375 0  0.78125 0.09375 0  0.8125 0.09375 0  0.84375 0.09375 0  0.875 0.09375 0  0.90625 0.09375 0  0.9375 0.09375 0  0.96875 0.09375 0  1 0.09375 0  1.03125 0.09375 0  1.0625 0.09375 0  1.09375 0.09375 0  1.125 0.09375 0  1.15625 0.09375 0  1.1875 0.09375 0  1.21875 0.09375 0  1.25 0.09375 0  1.28125 0.09375 0  1.3125 0.09375 0  1.34375 0.09375 0  1.375 0.09375 0  1.40625 0.09375 0  1.4375 0.09375 0  1.46875 0.09375 0  1.5 0.09375 0  0 0.125 0  0.03125 0.125 0  0.0625 0.125 0  0.09375 0.125 0  0.125 0.125 0  0.15625 0.125 0  0.1875 0.125 0  0.21875 0.125 0  0.25 0.125 0  0.28125 0.125 0  0.3125 0.125 0  0.34375 0.125 0  0.375 0.125 0  0.40625 0.125 0  0.4375 0.125 0  0.46875 0.125 0  0.5 0.125 0  0.53125 0.125 0  0.5625 0.125 0  0.59375 0.125 0  0.625 0.125 0  0.65625 0.125 0  0.6875 0.125 0  0.71875 0.125 0  0.75 0.125 0  0.78125 0.125 0  0.8125 0.125 0  0.84375 0.125 0  0.875 0.125 0  0.90625 0.125 0  0.9375 0.125 0  0.96875 0.125 0  1 0.125 0  1.03125 0.125 0  1.0625 0.125 0  1.09375 0.125 0  1.125 0.125 0  1.15625 0.125 0  1.1875 0.125 0  1.21875 0.125 0  1.25 0.125 0  1.28125 0.125 0  1.3125 0.125 0  1.34375 0.125 0  1.375 0.125 0  1.40625 0.125 0  1.4375 0.125 0  1.46875 0.125 0  1.5 0.125 0  0 0.15625 0  0.03125 0.15625 0  0.0625 0.15625 0  0.09375 0.15625 0  0.125 0.15625 0  0.15625 0.15625 0  0.1875 0.15625 0  0.21875 0.15625 0  0.25 0.15625 0  0.28125 0.15625 0  0.3125 0.15625 0  0.34375 0.15625 0  0.375 0.15625 0  0.40625 0.15625 0  0.4375 0.15625 0  0.46875 0.15625 0  0.5 0.15625 0  0.53125 0.15625 0  0.5625 0.15625 0  0.59375 0.15625 0  0.625 0.15625 0  0.65625 0.15625 0  0.6875 0.15625 0  0.71875 0.15625 0  0.75 0.15625 0  0.78125 0.15625 0  0.8125 0.15625 0  0.84375 0.15625 0  0.875 0.15625 0  0.90625 0.15625 0  0.9375 0.15625 0  0.96875 0.15625 0  1 0.15625 0  1.03125 0.15625 0  1.0625 0.15625 0  1.09375 0.15625 0  1.125 0.15625 0  1.15625 0.15625 0  1.1875 0.15625 0  1.21875 0.15625 0  1.25 0.15625 0  1.28125 0.15625 0  1.3125 0.15625 0  1.34375 0.15625 0  1.375 0.15625 0  1.40625 0.15625 0  1.4375 0.15625 0  1.46875 0.15625 0  1.5 0.15625 0  0 0.1875 0  0.03125 0.1875 0  0.0625 0.1875 0  0.09375 0.1875 0  0.125 0.1875 0  0.15625 0.1875 0  0.1875 0.1875 0  0.21875 0.1875 0  0.25 0.1875 0  0.28125 0.1875 0  0.3125 0.1875 0  0.34375 0.1875 0  0.375 0.1875 0  0.40625 0.1875 0  0.4375 0.1875 0  0.46875 0.1875 0  0.5 0.1875 0  0.53125 0.1875 0  0.5625 0.1875 0  0.59375 0.1875 0  0.625 0.1875 0  0.65625 0.1875 0  0.6875 0.1875 0  0.71875 0.1875 0  0.75 0.1875 0  0.78125 0.1875 0  0.8125 0.1875 0  0.84375 0.1875 0  0.875 0.1875 0  0.90625 0.1875 0  0.9375 0.1875 0  0.96875 0.1875 0  1 0.1875 0  1.03125 0.1875 0  1.0625 0.1875 0  1.09375 0.1875 0  1.125 0.1875 0  1.15625 0.1875 0  1.1875 0.1875 0  1.21875 0.1875 0  1.25 0.1875 0  1.28125 0.1875 0  1.3125 0.1875 0  1.34375 0.1875 0  1.375 0.1875 0  1.40625 0.1875 0  1.4375 0.1875 0  1.46875 0.1875 0  1.5 0.1875 0  0 0.21875 0  0.03125 0.21875 0  0.0625 0.21875 0  0.09375 0.21875 0  0.125 0.21875 0  0.15625 0.21875 0  0.1875 0.21875 0  0.21875 0.21875 0  0.25 0.21875 0  0.28125 0.21875 0  0.3125 0.21875 0  0.34375 0.21875 0  0.375 0.21875 0  0.40625 0.21875 0  0.4375 0.21875 0  0.46875 0.21875 0  0.5 0.21875 0  0.53125 0.21875 0  0.5625 0.21875 0  0.59375 0.21875 0  0.625 0.21875 0  0.65625 0.21875 0  0.6875 0.21875 0  0.71875 0.21875 0  0.75 0.21875 0  0.78125 0.21875 0  0.8125 0.21875 0  0.84375 0.21875 0  0.875 0.21875 0  0.90625 0.21875 0  0.9375 0.21875 0  0.96875 0.21875 0  1 0.21875 0  1.03125 0.21875 0  1.0625 0.21875 0  1.09375 0.21875 0  1.125 0.21875 0  1.15625 0.21875 0  1.1875 0.21875 0  1.21875 0.21875 0  1.25 0.21875 0  1.28125 0.21875 0  1.3125 0.21875 0  1.34375 0.21875 0  1.375 0.21875 0  1.40625 0.21875 0  1.4375 0.21875 0  1.46875 0.21875 0  1.5 0.21875 0  0 0.25 0  0.03125 0.25 0  0.0625 0.25 0  0.09375 0.25 0  0.125 0.25 0  0.15625 0.25 0  0.1875 0.25 0  0.21875 0.25 0  0.25 0.25 0  0.28125 0.25 0  0.3125 0.25 0  0.34375 0.25 0  0.375 0.25 0  0.40625 0.25 0  0.4375 0.25 0  0.46875 0.25 0  0.5 0.25 0  0.53125 0.25 0  0.5625 0.25 0  0.59375 0.25 0  0.625 0.25 0  0.65625 0.25 0  0.6875 0.25 0  0.71875 0.25 0  0.75 0.25 0  0.78125 0.25 0  0.8125 0.25 0  0.84375 0.25 0  0.875 0.25 0  0.90625 0.25 0  0.9375 0.25 0  0.96875 0.25 0  1 0.25 0  1.03125 0.25 0  1.0625 0.25 0  1.09375 0.25 0  1.125 0.25 0  1.15625 0.25 0  1.1875 0.25 0  1.21875 0.25 0  1.25 0.25 0  1.28125 0.25 0  1.3125 0.25 0  1.34375 0.25 0  1.375 0.25 0  1.40625 0.25 0  1.4375 0.25 0  1.46875 0.25 0  1.5 0.25 0  0 0.28125 0  0.03125 0.28125 0  0.0625 0.28125 0  0.09375 0.28125 0  0.125 0.28125 0  0.15625 0.28125 0  0.1875 0.28125 0  0.21875 0.28125 0  0.25 0.28125 0  0.28125 0.28125 0  0.3125 0.28125 0  0.34375 0.28125 0  0.375 0.28125 0  0.40625 0.28125 0  0.4375 0.28125 0  0.46875 0.28125 0  0.5 0.28125 0  0.53125 0.28125 0  0.5625 0.28125 0  0.59375 0.28125 0  0.625 0.28125 0  0.65625 0.28125 0  0.6875 0.28125 0  0.71875 0.28125 0  0.75 0.28125 0  0.78125 0.28125 0  0.8125 0.28125 0  0.84375 0.28125 0  0.875 0.28125 0  0.90625 0.28125 0  0.9375 0.28125 0  0.96875 0.28125 0  1 0.28125 0  1.03125 0.28125 0  1.0625 0.28125 0  1.09375 0.28125 0  1.125 0.28125 0  1.15625 0.28125 0  1.1875 0.28125 0  1.21875 0.28125 0  1.25 0.28125 0  1.28125 0.28125 0  1.3125 0.28125 0  1.34375 0.28125 0  1.375 0.28125 0  1.40625 0.28125 0  1.4375 0.28125 0  1.46875 0.28125 0  1.5 0.28125 0  0 0.3125 0  0.03125 0.3125 0  0.0625 0.3125 0  0.09375 0.3125 0  0.125 0.3125 0  0.15625 0.3125 0  0.1875 0.3125 0  0.21875 0.3125 0  0.25 0.3125 0  0.28125 0.3125 0  0.3125 0.3125 0  0.34375 0.3125 0  0.375 0.3125 0  0.40625 0.3125 0  0.4375 0.3125 0  0.46875 0.3125 0  0.5 0.3125 0  0.53125 0.3125 0  0.5625 0.3125 0  0.59375 0.3125 0  0.625 0.3125 0  0.65625 0.3125 0  0.6875 0.3125 0  0.71875 0.3125 0  0.75 0.3125 0  0.78125 0.3125 0  0.8125 0.3125 0  0.84375 0.3125 0  0.875 0.3125 0  0.90625 0.3125 0  0.9375 0.3125 0  0.96875 0.3125 0  1 0.3125 0  1.03125 0.3125 0  1.0625 0.3125 0  1.09375 0.3125 0  1.125 0.3125 0  1.15625 0.3125 0  1.1875 0.3125 0  1.21875 0.3125 0  1.25 0.3125 0  1.28125 0.3125 0  1.3125 0.3125 0  1.34375 0.3125 0  1.375 0.3125 0  1.40625 0.3125 0  1.4375 0.3125 0  1.46875 0.3125 0  1.5 0.3125 0  0 0.34375 0  0.03125 0.34375 0  0.0625 0.34375 0  0.09375 0.34375 0  0.125 0.34375 0  0.15625 0.34375 0  0.1875 0.34375 0  0.21875 0.34375 0  0.25 0.34375 0  0.28125 0.34375 0  0.3125 0.34375 0  0.34375 0.34375 0  0.375 0.34375 0  0.40625 0.34375 0  0.4375 0.34375 0  0.46875 0.34375 0  0.5 0.34375 0  0.53125 0.34375 0  0.5625 0.34375 0  0.59375 0.34375 0  0.625 0.34375 0  0.65625 0.34375 0  0.6875 0.34375 0  0.71875 0.34375 0  0.75 0.34375 0  0.78125 0.34375 0  0.8125 0.34375 0  0.84375 0.34375 0  0.875 0.34375 0  0.90625 0.34375 0  0.9375 0.34375 0  0.96875 0.34375 0  1 0.34375 0  1.03125 0.34375 0  1.0625 0.34375 0  1.09375 0.34375 0  1.125 0.34375 0  1.15625 0.34375 0  1.1875 0.34375 0  1.21875 0.34375 0  1.25 0.34375 0  1.28125 0.34375 0  1.3125 0.34375 0  1.34375 0.34375 0  1.375 0.34375 0  1
[...]
<PointData  Scalars="f_33"> 
<DataArray  type="Float64"  Name="f_33"  format="ascii">3.4474543577362791e-05  3.2792222123299240e-05  3.1992449199187214e-05  3.1033611606956065e-05  2.9939029776102339e-05  2.8699291343429048e-05  2.7359508153211113e-05  2.5960951058025386e-05  2.4537766995423759e-05  2.3116225760460409e-05  2.1715223743952261e-05  2.0347486306699259e-05  1.9020980524789683e-05  1.7740247325303879e-05  1.6507490845254236e-05  1.5323380667572709e-05  1.4187592861684944e-05  1.3099153053091367e-05  1.2056654660840238e-05  1.1058419266808854e-05  1.0102651906718158e-05  9.1876262346529116e-06  8.3119146000827064e-06  7.4746571872311650e-06  6.6758449985378834e-06  5.9165778723380437e-06  5.1992552986749605e-06  4.5276663394510330e-06  3.9069629343375456e-06  3.3435221684410393e-06  2.8447206520462997e-06  2.4186529866676362e-06  2.0738236465410990e-06  1.8188291131585971e-06  1.6620227295239095e-06  1.6111315420322736e-06  1.6727522114314827e-06  1.8516602805058958e-06  2.1498066879701758e-06  2.5649990326657686e-06  3.0893010496515607e-06  3.7066756349957871e-06  4.3933209929463381e-06  5.1072686374070483e-06  5.8186378574488437e-06  6.3973781450948742e-06  7.0421042840217439e-06  7.2946710697671431e-06  8.5428177933340760e-06  3.5298739321059932e-05  3.2835943577909946e-05  3.2064326497777853e-05  3.1077664289488726e-05  2.9981281961432768e-05  2.8722386083835299e-05  2.7363176178159920e-05  2.5948360496699091e-05  2.4512956384471372e-05  2.3083023147612695e-05  2.1676867099898733e-05  2.0306488084299700e-05  1.8979148417676260e-05  1.7698788101384658e-05  1.6467144621508217e-05  1.5284550274170412e-05  1.4150447760346018e-05  1.3063699924033211e-05  1.2022775397848771e-05  1.1025882288439567e-05  1.0071105595680341e-05  9.1565849803630001e-06  8.2807485248224288e-06  7.4425956052670523e-06  6.6420003100681520e-06  5.8799910611706696e-06  5.1589579127060899e-06  4.4827490307222892e-06  3.8566391427377229e-06  3.2871777602362632e-06  2.7819452135322467e-06  2.3492543310598345e-06  1.9978323367306542e-06  1.7365035604335500e-06  1.5738671604812390e-06  1.5179380065574564e-06  1.5756752412888589e-06  1.7523186363379293e-06  2.0504157529115314e-06  2.4684499189668601e-06  2.9993325515248337e-06  3.6275071066120573e-06  4.3305769518352664e-06  5.0646605203978996e-06  5.8072797364190743e-06  6.3999600615425818e-06  7.0932296017468368e-06  7.2565419696136813e-06  9.1840215377251476e-06  3.6044058153167688e-05  3.3229439725001023e-05  3.2423266512743777e-05  3.1263463265354025e-05  3.0111412412192142e-05  2.8786089290160327e-05  2.7375057046059792e-05  2.5918833027171865e-05  2.4452047784978193e-05  2.2999580838822956e-05  2.1578362252757470e-05  2.0198868290831679e-05  1.8866908033995748e-05  1.7585159715310271e-05  1.6354347236317959e-05  1.5174034982316947e-05  1.4043102368178405e-05  1.2959993289485574e-05  1.1922837685715588e-05  1.0929528641007136e-05  9.9778191796923713e-06  9.0654820613238070e-06  8.1905524493696958e-06  7.3516459903995474e-06  6.5483159481544483e-06  5.7813902566014803e-06  5.0532225164680510e-06  4.3678052479354505e-06  3.7307246611571578e-06  3.1489716422309860e-06  2.6306506242115843e-06  2.1846392204501631e-06  1.8202451689123454e-06  1.5468881449706961e-06  1.3738010050445891e-06  1.3097147497815340e-06  1.3624374600794303e-06  1.5382370825569534e-06  1.8408750078888680e-06  2.2702009355978015e-06  2.8205430715972239e-06  3.4775096066118539e-06  4.2199557463581150e-06  5.0026547474375152e-06  5.8076994182040076e-06  6.4545846225947191e-06  7.2653459548147146e-06  7.5147420073923336e-06  9.9749514869949874e-06  3.6668450554989715e-05  3.3770599948444721e-05  3.2955822532194962e-05  3.1621806660724282e-05  3.0384648554795866e-05  2.8960247636873102e-05  2.7471358429035582e-05  2.5949798989775151e-05  2.4430946935462448e-05  2.2938445296000983e-05  2.1487744846553819e-05  2.0087555045682205e-05  1.8741907074812454e-05  1.7451850339856891e-05  1.6216728543870379e-05  1.5035000324033488e-05  1.3904686820361676e-05  1.2823559949904202e-05  1.1789187336514836e-05  1.0798933593226134e-05  9.8499972638409348e-06  8.9395412762755982e-06  8.0649484339754629e-06  7.2241977427650815e-06  6.4163140857007233e-06  5.6418058097320534e-06  4.9029912891889057e-06  4.2041378664313372e-06  3.5513869074156116e-06  2.9524942579213083e-06  2.4164537436709849e-06  1.9530826214646826e-06  1.5726336027650737e-06  1.2854680946245838e-06  1.1017820171871058e-06  1.0313366377401692e-06  1.0830868290168460e-06  1.2645922419823641e-06  1.5810371917367345e-06  2.0337360400636206e-06  2.6183820187654247e-06  3.3215570991181636e-06  4.1226455130502650e-06  4.9758383640845200e-06  5.8635525468867762e-06  6.6038211120920104e-06  7.5387175739378523e-06  7.9408738606559848e-06  1.0602477349385420e-05  3.7321364621839399e-05  3.4402464077040577e-05  3.3545945994515061e-05  3.2093554470811291e-05  3.0762610112156978e-05  2.9230085001924915e-05  2.7650635751157615e-05  2.6048710723084252e-05  2.4463076611805319e-05  2.2916736571481473e-05  2.1424148742729163e-05  1.9992499334980049e-05  1.8624105194491494e-05  1.7318326072419058e-05  1.6072983755209077e-05  1.4885248262152488e-05  1.3752087791029901e-05  1.2670411435102539e-05  1.1637038959367773e-05  1.0648615833130846e-05  9.7015740370560627e-06  8.7922210673720429e-06  7.9170124089967383e-06  7.0730154227077800e-06  6.2585039964970296e-06  5.4735554826473539e-06  4.7204931674189292e-06  4.0040546745704581e-06  3.3312541593238758e-06  2.7109977828136130e-06  2.1535665853699478e-06  1.6700864894272154e-06  1.2720729525494688e-06  9.7108838779662879e-07  7.7849243643646118e-07  7.0521733508805789e-07  7.6143613228520215e-07  9.5598420435590600e-07  1.2953353281699423e-06  1.7819995301056037e-06  2.4125864974206264e-06  3.1741263504970617e-06  4.0457627155151822e-06  4.9809316147582306e-06  5.9610934269389107e-06  6.8048176659291812e-06  7.8566619552179965e-06  8.3836542673986079e-06  1.1140027006788050e-05  3.7993183390231204e-05  3.5062564097360380e-05  3.4162312961511499e-05  3.2626458009273962e-05  3.1204991363122515e-05  2.9570661186771861e-05  2.7898250455867993e-05  2.6210121236977110e-05  2.4550073871503888e-05  2.2941301666768696e-05  2.1398118572790879e-05  1.9926733387931437e-05  1.8528087272362974e-05  1.7200031236356049e-05  1.5938921189174246e-05  1.4740612628642028e-05  1.3600947170630558e-05  1.2515873744571887e-05  1.1481352273587668e-05  1.0493175187576722e-05  9.5468326308302124e-06  8.6375406414938899e-06  7.7605307261110997e-06  6.9116396124531831e-06  6.0881268940941025e-06  5.2895221020569713e-06  4.5182417895232174e-06  3.7797824169351544e-06  3.0824550644087783e-06  2.4367846601512207e-06  1.8547709026790266e-06  1.3491921161744671e-06  9.3306386141042187e-07  6.1928313447113853e-07  4.2041307138400907e-07  3.4850919901096330e-07  4.1482511021357222e-07  6.2923307536513691e-07  9.9914314941199685e-07  1.5277851520283683e-06  2.2121017022181991e-06  3.0389113898861341e-06  3.9864478928054370e-06  5.0067237939398551e-06  6.0791566467436829e-06  7.0209097499568835e-06  8.1712099721680301e-06  8.7897211179499434e-06  1.1595825926284979e-05  3.8659968413201047e-05  3.5719219697170810e-05  3.4781189545520113e-05  3.3181042007423967e-05  3.1679633860463350e-05  2.9955279268493859e-05  2.8194118095583319e-05  2.6421095529740297e-05  2.4685072708503652e-05  2.3010363592423982e-05  2.1411989779600899e-05  1.9895787942983713e-05  1.8461783267373499e-05  1.7106629928114576e-05  1.5825401356489447e-05  1.4612729040851206e-05  1.3463357132872045e-05  1.2372269069258864e-05  1.1334537803177355e-05  1.0345045102441520e-05  9.3982210646717736e-06  8.4879736364418712e-06  7.6079803895253812e-06  6.7524510386266974e-06  5.9172889899722293e-06  5.1013386841712005e-06  4.3072700938765394e-06  3.5417721430386340e-06  2.8150359640322344e-06  2.1397852219451311e-06  1.5301997640018022e-06  1.0010009356147578e-06  5.6682439068193435e-07  2.4187866609080074e-07  3.9796154170087866e-08  -2.6467234615868362e-08  5.5120642397058373e-08  2.9508823576672547e-07  7.0132134324040022e-07  1.2772365201266600e-06  2.0195234594737264e-06  2.9141879798439977e-06  3.9379436613212033e-06  5.0407444476141216e-06  6.1989940459383979e-06  7.2270069643518353e-06  8.4565126011063489e-06  9.1417332117645637e-06  1.1977681873495575e-05  3.9302516737885307e-05  3.6352758665516775e-05  3.5383342658033576e-05  3.3731590908192866e-05  3.2162515121112406e-05  3.0360367559844107e-05  2.8518561122997629e-05  2.6666454180045473e-05  2.4857328298788561e-05  2.3117419154772098e-05  2.1463033669040244e-05  1.9900154256504731e-05  1.8428346023663648e-05  1.7043407835344302e-05  1.5739368111325303e-05  1.4509787351710596e-05  1.3348407503667652e-05  1.2249311819157135e-05  1.1206739152254788e-05  1.0214689755219206e-05  9.2664924311242304e-06  8.3545622678630250e-06  7.4706418603230786e-06  6.6067848549288990e-06  5.7570528652601559e-06  4.9194249634469241e-06  4.0971055757862775e-06  3.2986501066861775e-06  2.5369566632261803e-06  1.8276733016824484e-06  1.1876327421445689e-06  6.3368833540017235e-07  1.8204818000340251e-07  -1.5197937377630402e-07  -3.5400528451381741e-07  -4.1054627310516524e-07  -3.0920586542202647e-07  -3.9248297952007170e-08  4.0720882835969968e-07  1.0332696954052788e-06  1.8348723447181523e-06  2.7967339227004910e-06  3.8936083474891355e-06  5.0729561820232977e-06  6.3077074868656745e-06  7.4088913274297861e-06  8.7011381335222396e-06  9.4359620051881159e-06  1.2291864748272678e-05  3.9906514059453934e-05  3.6949043826202278e-05  3.5953982781305521e-05  3.4260257924457583e-05  3.2634852820650714e-05  3.0766553874932325e-05  2.8854015749818752e-05  2.6931002859357865e-05  2.5054611380478488e-05  2.3253421788883221e-05  2.1545293181046580e-05  1.9936737598216334e-05  1.8427231914074416e-05  1.7012023161487552e-05  1.5684327952365247e-05  1.4436800216315315e-05  1.3262297766166643e-05  1.2154104744293608e-05  1.1105740399599526e-05  1.0110441629577329e-05  9.1604974530951487e-06  8.2467024663223397e-06  7.3584130484684241e-06  6.4847764616015012e-06  5.6172678609955444e-06  4.7527420271062954e-06  3.8954405881749414e-06  3.0568731223965732e-06  2.2538430252131754e-06  1.5058152319806430e-06  8.3269535422762948e-07  2.5346329171565911e-07  -2.1439104869253387e-07  -5.5489645486378686e-07  -7.5339449565474154e-07  -7.9636211376498236e-07  -6.7150871997679609e-07  -3.6834193142618727e-07  1.2058631462206213e-07  7.9766277645888399e-07  1.6577095088299377e-06  2.6838488720311808e-06  3.8486455892107265e-06  5.0969204256515184e-06  6.3981376996004153e-06  7.5603041486295493e-06  8.9022089552407450e-06  9.6748041184799585e-06  1.2545071201203688e-05  4.0460884033991527e-05  3.7497040110653829e-05  3.6481322943759454e-05  3.4753488326770199e-05  3.3081750981130266e-05  3.1158107785148830e-05  2.9185183428924477e-05  2.7200525956875804e-05  2.5264527269351052e-05  2.3408152144169472e-05  2.1650871735441324e-05  1.9999969222916060e-05  1.8455091013069563e-05  1.7011170131590453e-05  1.5660806780833420e-05  1.4395888731538469e-05  1.3208490896459763e-05  1.2091193081956114e-05  1.1036938406174592e-05  1.0038396128072016e-05  9.0870185866036404e-06  8.1719633080600091e-06  7.2796753532085402e-06  6.3952877939573553e-06  5.5064732720142922e-06  4.6085666210557536e-06  3.7077797155099550e-06  2.8203890990976854e-06  1.9688424731911837e-06  1.1774374425729407e-06  4.6935811603935761e-07  -1.3465125887562006e-07  -6.1645229131013327e-07  -9.6010115694520395e-07  -1.1513066107890209e-06  -1.1770528617729143e-06  -1.0256157288958189e-06  -6.8713542904889777e-07  -1.5492799693132576e-07  5.7240341330584688e-07  1.4883585173070115e-06  2.5743388755271871e-06  3.8006988325617758e-06  5.1097219446929529e-06  6.4677279849753218e-06  7.6802643003550437e-06  9.0616160994879078e-06  9.8635390689900150e-06  1.2744642039333745e-05  4.0956662231888046e-05  3.7987713061062162e-05  3.6955648809243487e-05  3.5200381768635993e-05  3.3491093388556066e-05  3.1522001933236951e-05  2.9498798063426905e-05  2.7462104726177853e-05  2.5475112006673260e-05  2.3570979723529808e-05  2.1770733213313425e-05  2.0082538454583752e-05  1.8506368664508516e-05  1.7037018138975120e-05  1.5666622529499442e-05  1.4386408507513055e-05  1.3187727592520671e-05  1.2062503219755431e-05  1.1003221658663815e-05  1.0002215931004505e-05  9.0504974967665032e-06  8.1357764479296829e-06  7.2410515139307492e-06  6.3457794483465824e-06  5.4317381195067348e-06  4.4921247795808773e-06  3.5369220761869105e-06  2.5902522160555771e-06  1.6826458921080016e-06  8.4414449311248304e-07  1.0086687226813025e-07  -5.2563491628798074e-07  -1.0176407488751826e-06  -1.3601586181176170e-06  -1.5399757926419603e-06  -1.5451011705838730e-06  -1.3647470424602633e-06  -9.8995136336472192e-07  -4.1498108293591977e-07  3.6045240938843134e-07  1.3284814939005076e-06  2.4688270704263372e-06  3.7497833694762758e-06  5.1113705407568495e-06  6.5172402451362734e-06  7.7710944297397647e-06  9.1838634425641617e-06  1.0008831597785330e-05  1.2898330906742448e-05  4.1386374945739522e-05  3.8413476873266894e-05  3.7368785402832653e-05  3.5591882436752859e-05  3.3852801852722906e-05  3.1847273389977928e-05  2.9783370398615096e-05  2.7704144203005342e-05  2.5675100784491952e-05  2.3731308239285987e-05  2.1895215893737457e-05  2.0175887505885659e-05  1.8573712366454630e-05  1.7083478937934975e-05  1.5696986100093139e-05  1.4404886930196610e-05  1.3197834150355982e-05  1.2067076550352857e-05  1.1004664664608229e-05  1.0002767965842151e-05  9.0525687207242491e-06  8.1408431041863224e-06  7.2468821984407790e-06  6.3419767718838917e-06  5.3982685018894757e-06  4.4059155341384876e-06  3.3822280104021197e-06  2.3643656401689260e-06  1.3940290036575491e-06  5.0717445550574661e-07  -2.6859939467624525e-07  -9.1272543922714990e-07  -1.4093878116337377e-06  -1.7455712709988399e-06  -1.9097730917770424e-06  -1.8913856708376115e-06  -1.6807469093341093e-06  -1.2698792408742849e-06  -6.5401933652914048e-07  1.6605154611579637e-07  1.1811995201846902e-06  2.3696395734618901e-06  3.6978768500631551e-06  5.1040350582187290e-06  6.5496191821010225e-06  7.8370301271296115e-06  9.2747554217708623e-06  1.0117881008025835e-05  1.3013949927132559e-05  4.1743732185032700e-05  3.8767923174455788e-05  3.7713826353052307e-05  3.5920396382878060e-05  3.4158433085243327e-05  3.2124665322044446e-05  3.0029002920750206e-05  2.7916363552220102e-05  2.5854112240884230e-05  2.3878905138935351e-05  2.2014438052151969e-05  2.0270625015465162e-05  1.8648318919789301e-05  1.7142415463478090e-05  1.5744511904714270e-05  1.4444801174738598e-05  1.3233282069952018e-05  1.2100481021454679e-05  1.1037882463988286e-05  1.0037464241292654e-05  9.0912612973513385e-06  8.1859900034422964e-06  7.2980731701476687e-06  6.3869081146600820e-06  5.4083332418823036e-06  4.3484934518991026e-06  3.2388781582655992e-06  2.1380026490261253e-06  1.1017214940415150e-06  1.7003246055984100e-07  -6.3121255348134775e-07  -1.2850626409137018e-06  -1.7792229085356962e-06  -2.1034660735809777e-06  -2.2483158490207891e-06  -2.2046047961061621e-06  -1.9637325242136583e-06  -1.5185896200685031e-06  -8.6523782074833007e-07  -5.3554431469181058e-09  1.0508707924733376e-06  2.2804164624630450e-06  3.6483372411439966e-06  5.0912585435813220e-06  6.5690403712960221e-06  7.8832121901199184e-06  9.3405217905661740e-06  1.0197819208000647e-05  1.3098993044312453e-05  4.2023508650970465e-05  3.9045718512171313e-05  3.7985030441648059e-05  3.6179640773871091e-05  3.4401006998312057e-05  3.2346478717046918e-05  3.0227336226038009e-05  2.8089871683808073e-05  2.6002876578797524e-05  2.4004262081205868e-05  2.2118757206016734e-05  2.0357032277554444e-05  1.8720415723895660e-05  1.7204009502797393e-05  1.5799367471735254e-05  1.4496403326644992e-05  1.3284613280727353e-05  1.2153842450024783e-05  1.1094818207730182e-05  1.0099046522487861e-05  9.1596569015123745e-06  8.2642148967054084e-06  7.3897089818645767e-06  6.4781159073767154e-06  5.4585158047626995e-06  4.3128807009747796e-06  3.0984207199475310e-06  1.9068756276756783e-06  8.0906567763313714e-07  -1.5677955485314098e-07  -9.7167796723932298e-07  -1.6250696446636989e-06  -2.1092189245754789e-06  -2.4168239470164486e-06  -2.5402087277566357e-06  -2.4713218365566222e-06  -2.2023074111549392e-06  -1.7266397437742012e-06  -1.0409452392333516e-06  -1.4754252278393042e-07  9.4260492581298567e-07  2.2055431895431262e-06  3.6052397741529152e-06  5.0772075380720167e-06  6.5801107395899169e-06  7.9149151277146711e-06  9.3871678124057866e-06  1.0255228967598332e-05  1.3160261933937603e-05  4.2221533351237620e-05  3.9242602750429024e-05  3.8177821441813764e-05  3.6364627080952736e-05  3.4574985369527745e-05  3.2506576168140952e-05  3.0371625100690737e-05  2.8217354358393792e-05  2.6113563000291172e-05  2.4099071905310049e-05  2.2199393812348690e-05  2.0425811215962407e-05  1.8780088259505613e-05  1.7257591830518503e-05  1.5849981173829366e-05  1.4547118842598568e-05  1.3338282683677634e-05  1.2212900883195738e-05  1.1161022938531198e-05  1.0173483204106104e-05  9.2436729865604709e-06  8.3599617830925828e-06  7.5062382896985935e-06  6.6002143822786474e-06  5.5342301433316634e-06  4.2872271495159476e-06  2.9547194498019246e-06  1.6761771820448696e-06  5.3300592766863746e-07  -4.4912133211757278e-07  -1.2633899945299881e-06  -1.9068172259397299e-06  -2.3757639674079950e-06  -2.6650081754243428e-06  -2.7679011163764998e-06  -2.6769078461926572e-06  -2.3844712736338560e-06  -1.8843078507434436e-06  -1.1733226129008548e-06  -2.5420503351284709e-07  8.6158677054905735e-07  2.1494772041413040e-06  3.5726922308710799e-06  5.0659795415795523e-06  6.5871928762903072e-06  7.9369315075920458e-06  9.4199587446681073e-06  1.0295737603877708e-05  1.3203517902474469e-05  4.2334733545936753e-05  3.9355439385343063e-05  3.8288843146276582e-05  3.6471715628222104e-05  3.4676336270312415e-05  3.2600478550920733e-05  3.0456903462546232e-05  2.8293345607694978e-05  2.6180195376882848e-05  2.4156822015708266e-05  2.2249233466852557e-05  2.0469121985825178e-05  1.8818573182691999e-05  1.7293191709440784e-05  1.5884802405371184e-05  1.4583371530601307e-05  1.3378220377237536e-05  1.2258732231826015e-05  1.1214740042021205e-05  1.0236749805260356e-05  9.3173019152281144e-06  8.4450483087871917e-06  7.6148333910386425e-06  6.7134022568552615e-06  5.6051498263111525e-06  4.2669910260046064e-06  2.8228102701110313e-06  1.4783795958038613e-06  3.1593925811708337e-07  -6.6422237472047054e-07  -1.4680091413471033e-06  -2.0978781643908183e-06  -2.5522062552113206e-06  -2.8264309710823786e-06  -2.9140519924556352e-06  -2.8075158529593090e-06  -2.4992229962806658e-06  -1.9828866523182866e-06  -1.2554790502756585e-06  -3.1984497459227739e-07  8.1230564207693322e-07  2.1160503100620565e-06  3.5541855401473603e-06  5.0609946427323999e-06  6.5938459225404534e-06  7.9530807905814865e-06  9.4430086755366185e-06  1.0323681438884899e-05  1.3233180883167131e-05  4.2361191889765155e-05  3.9382278387309200e-05  3.8316029392757370e-05  3.6498693022018998e-05  3.4702628501990138e-05  3.2625493580602002e-05  3.0480175136728168e-05  2.8314515189942336e-05  2.6199077214258595e-05  2.4173404351288408e-05  2.2263680487191664e-05  2.0481756094064802e-05  1.8829853075418613e-05  1.7303689001488482e-05  1.5895181871925241e-05  1.4594377333121152e-05  1.3390667365339283e-05  1.2273496347540911e-05  1.1232737149228641e-05  1.0258950667358581e-05  9.3440332265548530e-06  8.4778247379695281e-06  7.6610189568717474e-06  6.7691531332274212e-06  5.6396645256423766e-06  4.2689499463156202e-06  2.7721088744182902e-06  1.3906061480304827e-06  2.2712427332642127e-07  -7.4766367461600789e-07  -1.5445148444369913e-06  -2.1675675946344821e-06  -2.6154656295189453e-06  -2.8835716706746107e-06  -2.9652471851074956e-06  -2.8528128377827176e-06  -2.5385740656458855e-06  -2.0161848594226530e-06  -1.2825956652168236e-06  -3.4067008547929845e-07  7.9782064421141195e-07  2.1078437855669084e-06  