<?xml version="1.0"?>
<VTKFile type="UnstructuredGrid"  version="0.1"  >
<UnstructuredGrid>
<Piece  NumberOfPoints="1617" NumberOfCells="3072">
<Points>
<DataArray  type="Float64"  NumberOfComponents="3"  format="ascii">0 0 0  0.03125 0 0  0.0625 0 0  0.09375 0 0  0.125 0 0  0.15625 0 0  0.1875 0 0  0.21875 0 0  0.25 0 0  0.28125 0 0  0.3125 0 0  0.34375 0 0  0.375 0 0  0.40625 0 0  0.4375 0 0  0.46875 0 0  0.5 0 0  0.53125 0 0  0.5625 0 0  0.59375 0 0  0.625 0 0  0.65625 0 0  0.6875 0 0  0.71875 0 0  0.75 0 0  0.78125 0 0  0.8125 0 0  0.84375 0 0  0.875 0 0  0.90625 0 0  0.9375 0 0  0.96875 0 0  1 0 0  1.03125 0 0  1.0625 0 0  1.09375 0 0  1.125 0 0  1.15625 0 0  1.1875 0 0  1.21875 0 0  1.25 0 0  1.28125 0 0  1.3125 0 0  1.34375 0 0  1.375 0 0  1.40625 0 0  1.4375 0 0  1.46875 0 0  1.5 0 0  0 0.03125 0  0.03125 0.03125 0  0.0625 0.03125 0  0.09375 0.03125 0  0.125 0.03125 0  0.15625 0.03125 0  0.1875 0.03125 0  0.21875 0.03125 0  0.25 0.03125 0  0.28125 0.03125 0  0.3125 0.03125 0  0.34375 0.03125 0  0.375 0.03125 0  0.40625 0.03125 0  0.4375 0.03125 0  0.46875 0.03125 0  0.5 0.03125 0  0.53125 0.03125 0  0.5625 0.03125 0  0.59375 0.03125 0  0.625 0.03125 0  0.65625 0.03125 0  0.6875 0.03125 0  0.71875 0.03125 0  0.75 0.03125 0  0.78125 0.03125 0  0.8125 0.03125 0  0.84375 0.03125 0  0.875 0.03125 0  0.90625 0.03125 0  0.9375 0.03125 0  0.96875 0.03125 0  1 0.03125 0  1.03125 0.03125 0  1.0625 0.03125 0  1.09375 0.03125 0  1.125 0.03125 0  1.15625 0.03125 0  1.1875 0.03125 0  1.21875 0.03125 0  1.25 0.03125 0  1.28125 0.03125 0  1.3125 0.03125 0  1.34375 0.03125 0  1.375 0.03125 0  1.40625 0.03125 0  1.4375 0.03125 0  1.46875 0.03125 0  1.5 0.03125 0  0 0.0625 0  0.03125 0.0625 0  0.0625 0.0625 0  0.09375 0.0625 0  0.125 0.0625 0  0.15625 0.0625 0  0.1875 0.0625 0  0.21875 0.0625 0  0.25 0.0625 0  0.28125 0.0625 0  0.3125 0.0625 0  0.34375 0.0625 0  0.375 0.0625 0  0.40625 0.0625 0  0.4375 0.0625 0  0.46875 0.0625 0  0.5 0.0625 0  0.53125 0.0625 0  0.5625 0.0625 0  0.59375 0.0625 0  0.625 0.0625 0  0.65625 0.0625 0  0.6875 0.0625 0  0.71875 0.0625 0  0.75 0.0625 0  0.78125 0.0625 0  0.8125 0.0625 0  0.84375 0.0625 0  0.875 0.0625 0  0.90625 0.0625 0  0.9375 0.0625 0  0.96875 0.0625 0  1 0.0625 0  1.03125 0.0625 0  1.0625 0.0625 0  1.09375 0.0625 0  1.125 0.0625 0  1.15625 0.0625 0  1.1875 0.0625 0  1.21875 0.0625 0  1.25 0.0625 0  1.28125 0.0625 0  1.3125 0.0625 0  1.34375 0.0625 0  1.375 0.0625 0  1.40625 0.0625 0  1.4375 0.0625 0  1.46875 0.0625 0  1.5 0.0625 0  0 0.09375 0  0.03125 0.09375 0  0.0625 0.09375 0  0.09375 0.09375 0  0.125 0.09375 0  0.15625 0.09375 0  0.1875 0.09375 0  0.21875 0.09375 0  0.25 0.09375 0  0.28125 0.09375 0  0.3125 0.09375 0  0.34375 0.09375 0  0.375 0.09375 0  0.40625 0.09375 0  0.4375 0.09375 0  0.46875 0.09375 0  0.5 0.09375 0  0.53125 0.09375 0  0.5625 0.09375 0  0.59375 0.09375 0  0.625 0.09375 0  0.65625 0.09375 0  0.6875 0.09375 0  0.71875 0.09375 0  0.75 0.09375 0  0.78125 0.09375 0  0.8125 0.09375 0  0.84375 0.09375 0  0.875 0.09375 0  0.90625 0.09375 0  0.9375 0.09375 0  0.96875 0.09375 0  1 0.09375 0  1.03125 0.09375 0  1.0625 0.09375 0  1.09375 0.09375 0  1.125 0.09375 0  1.15625 0.09375 0  1.1875 0.09375 0  1.21875 0.09375 0  1.25 0.09375 0  1.28125 0.09375 0  1.3125 0.09375 0  1.34375 0.09375 0  1.375 0.09375 0  1.40625 0.09375 0  1.4375 0.09375 0  1.46875 0.09375 0  1.5 0.09375 0  0 0.125 0  0.03125 0.125 0  0.0625 0.125 0  0.09375 0.125 0  0.125 0.125 0  0.15625 0.125 0  0.1875 0.125 0  0.21875 0.125 0  0.25 0.125 0  0.28125 0.125 0  0.3125 0.125 0  0.34375 0.125 0  0.375 0.125 0  0.40625 0.125 0  0.4375 0.125 0  0.46875 0.125 0  0.5 0.125 0  0.53125 0.125 0  0.5625 0.125 0  0.59375 0.125 0  0.625 0.125 0  0.65625 0.125 0  0.6875 0.125 0  0.71875 0.125 0  0.75 0.125 0  0.78125 0.125 0  0.8125 0.125 0  0.84375 0.125 0  0.875 0.125 0  0.90625 0.125 0  0.9375 0.125 0  0.96875 0.125 0  1 0.125 0  1.03125 0.125 0  1.0625 0.125 0  1.09375 0.125 0  1.125 0.125 0  1.15625 0.125 0  1.1875 0.125 0  1.21875 0.125 0  1.25 0.125 0  1.28125 0.125 0  1.3125 0.125 0  1.34375 0.125 0  1.375 0.125 0  1.40625 0.125 0  1.4375 0.125 0  1.46875 0.125 0  1.5 0.125 0  0 0.15625 0  0.03125 0.15625 0  0.0625 0.15625 0  0.09375 0.15625 0  0.125 0.15625 0  0.15625 0.15625 0  0.1875 0.15625 0  0.21875 0.15625 0  0.25 0.15625 0  0.28125 0.15625 0  0.3125 0.15625 0  0.34375 0.15625 0  0.375 0.15625 0  0.40625 0.15625 0  0.4375 0.15625 0  0.46875 0.15625 0  0.5 0.15625 0  0.53125 0.15625 0  0.5625 0.15625 0  0.59375 0.15625 0  0.625 0.15625 0  0.65625 0.15625 0  0.6875 0.15625 0  0.71875 0.15625 0  0.75 0.15625 0  0.78125 0.15625 0  0.8125 0.15625 0  0.84375 0.15625 0  0.875 0.15625 0  0.90625 0.15625 0  0.9375 0.15625 0  0.96875 0.15625 0  1 0.15625 0  1.03125 0.15625 0  1.0625 0.15625 0  1.09375 0.15625 0  1.125 0.15625 0  1.15625 0.15625 0  1.1875 0.15625 0  1.21875 0.15625 0  1.25 0.15625 0  1.28125 0.15625 0  1.3125 0.15625 0  1.34375 0.15625 0  1.375 0.15625 0  1.40625 0.15625 0  1.4375 0.15625 0  1.46875 0.15625 0  1.5 0.15625 0  0 0.1875 0  0.03125 0.1875 0  0.0625 0.1875 0  0.09375 0.1875 0  0.125 0.1875 0  0.15625 0.1875 0  0.1875 0.1875 0  0.21875 0.1875 0  0.25 0.1875 0  0.28125 0.1875 0  0.3125 0.1875 0  0.34375 0.1875 0  0.375 0.1875 0  0.40625 0.1875 0  0.4375 0.1875 0  0.46875 0.1875 0  0.5 0.1875 0  0.53125 0.1875 0  0.5625 0.1875 0  0.59375 0.1875 0  0.625 0.1875 0  0.65625 0.1875 0  0.6875 0.1875 0  0.71875 0.1875 0  0.75 0.1875 0  0.78125 0.1875 0  0.8125 0.1875 0  0.84375 0.1875 0  0.875 0.1875 0  0.90625 0.1875 0  0.9375 0.1875 0  0.96875 0.1875 0  1 0.1875 0  1.03125 0.1875 0  1.0625 0.1875 0  1.09375 0.1875 0  1.125 0.1875 0  1.15625 0.1875 0  1.1875 0.1875 0  1.21875 0.1875 0  1.25 0.1875 0  1.28125 0.1875 0  1.3125 0.1875 0  1.34375 0.1875 0  1.375 0.1875 0  1.40625 0.1875 0  1.4375 0.1875 0  1.46875 0.1875 0  1.5 0.1875 0  0 0.21875 0  0.03125 0.21875 0  0.0625 0.21875 0  0.09375 0.21875 0  0.125 0.21875 0  0.15625 0.21875 0  0.1875 0.21875 0  0.21875 0.21875 0  0.25 0.21875 0  0.28125 0.21875 0  0.3125 0.21875 0  0.34375 0.21875 0  0.375 0.21875 0  0.40625 0.21875 0  0.4375 0.21875 0  0.46875 0.21875 0  0.5 0.21875 0  0.53125 0.21875 0  0.5625 0.21875 0  0.59375 0.21875 0  0.625 0.21875 0  0.65625 0.21875 0  0.6875 0.21875 0  0.71875 0.21875 0  0.75 0.21875 0  0.78125 0.21875 0  0.8125 0.21875 0  0.84375 0.21875 0  0.875 0.21875 0  0.90625 0.21875 0  0.9375 0.21875 0  0.96875 0.21875 0  1 0.21875 0  1.03125 0.21875 0  1.0625 0.21875 0  1.09375 0.21875 0  1.125 0.21875 0  1.15625 0.21875 0  1.1875 0.21875 0  1.21875 0.21875 0  1.25 0.21875 0  1.28125 0.21875 0  1.3125 0.21875 0  1.34375 0.21875 0  1.375 0.21875 0  1.40625 0.21875 0  1.4375 0.21875 0  1.46875 0.21875 0  1.5 0.21875 0  0 0.25 0  0.03125 0.25 0  0.0625 0.25 0  0.09375 0.25 0  0.125 0.25 0  0.15625 0.25 0  0.1875 0.25 0  0.21875 0.25 0  0.25 0.25 0  0.28125 0.25 0  0.3125 0.25 0  0.34375 0.25 0  0.375 0.25 0  0.40625 0.25 0  0.4375 0.25 0  0.46875 0.25 0  0.5 0.25 0  0.53125 0.25 0  0.5625 0.25 0  0.59375 0.25 0  0.625 0.25 0  0.65625 0.25 0  0.6875 0.25 0  0.71875 0.25 0  0.75 0.25 0  0.78125 0.25 0  0.8125 0.25 0  0.84375 0.25 0  0.875 0.25 0  0.90625 0.25 0  0.9375 0.25 0  0.96875 0.25 0  1 0.25 0  1.03125 0.25 0  1.0625 0.25 0  1.09375 0.25 0  1.125 0.25 0  1.15625 0.25 0  1.1875 0.25 0  1.21875 0.25 0  1.25 0.25 0  1.28125 0.25 0  1.3125 0.25 0  1.34375 0.25 0  1.375 0.25 0  1.40625 0.25 0  1.4375 0.25 0  1.46875 0.25 0  1.5 0.25 0  0 0.28125 0  0.03125 0.28125 0  0.0625 0.28125 0  0.09375 0.28125 0  0.125 0.28125 0  0.15625 0.28125 0  0.1875 0.28125 0  0.21875 0.28125 0  0.25 0.28125 0  0.28125 0.28125 0  0.3125 0.28125 0  0.34375 0.28125 0  0.375 0.28125 0  0.40625 0.28125 0  0.4375 0.28125 0  0.46875 0.28125 0  0.5 0.28125 0  0.53125 0.28125 0  0.5625 0.28125 0  0.59375 0.28125 0  0.625 0.28125 0  0.65625 0.28125 0  0.6875 0.28125 0  0.71875 0.28125 0  0.75 0.28125 0  0.78125 0.28125 0  0.8125 0.28125 0  0.84375 0.28125 0  0.875 0.28125 0  0.90625 0.28125 0  0.9375 0.28125 0  0.96875 0.28125 0  1 0.28125 0  1.03125 0.28125 0  1.0625 0.28125 0  1.09375 0.28125 0  1.125 0.28125 0  1.15625 0.28125 0  1.1875 0.28125 0  1.21875 0.28125 0  1.25 0.28125 0  1.28125 0.28125 0  1.3125 0.28125 0  1.34375 0.28125 0  1.375 0.28125 0  1.40625 0.28125 0  1.4375 0.28125 0  1.46875 0.28125 0  1.5 0.28125 0  0 0.3125 0  0.03125 0.3125 0  0.0625 0.3125 0  0.09375 0.3125 0  0.125 0.3125 0  0.15625 0.3125 0  0.1875 0.3125 0  0.21875 0.3125 0  0.25 0.3125 0  0.28125 0.3125 0  0.3125 0.3125 0  0.34375 0.3125 0  0.375 0.3125 0  0.40625 0.3125 0  0.4375 0.3125 0  0.46875 0.3125 0  0.5 0.3125 0  0.53125 0.3125 0  0.5625 0.3125 0  0.59375 0.3125 0  0.625 0.3125 0  0.65625 0.3125 0  0.6875 0.3125 0  0.71875 0.3125 0  0.75 0.3125 0  0.78125 0.3125 0  0.8125 0.3125 0  0.84375 0.3125 0  0.875 0.3125 0  0.90625 0.3125 0  0.9375 0.3125 0  0.96875 0.3125 0  1 0.3125 0  1.03125 0.3125 0  1.0625 0.3125 0  1.09375 0.3125 0  1.125 0.3125 0  1.15625 0.3125 0  1.1875 0.3125 0  1.21875 0.3125 0  1.25 0.3125 0  1.28125 0.3125 0  1.3125 0.3125 0  1.34375 0.3125 0  1.375 0.3125 0  1.40625 0.3125 0  1.4375 0.3125 0  1.46875 0.3125 0  1.5 0.3125 0  0 0.34375 0  0.03125 0.34375 0  0.0625 0.34375 0  0.09375 0.34375 0  0.125 0.34375 0  0.15625 0.34375 0  0.1875 0.34375 0  0.21875 0.34375 0  0.25 0.34375 0  0.28125 0.34375 0  0.3125 0.34375 0  0.34375 0.34375 0  0.375 0.34375 0  0.40625 0.34375 0  0.4375 0.34375 0  0.46875 0.34375 0  0.5 0.34375 0  0.53125 0.34375 0  0.5625 0.34375 0  0.59375 0.34375 0  0.625 0.34375 0  0.65625 0.34375 0  0.6875 0.34375 0  0.71875 0.34375 0  0.75 0.34375 0  0.78125 0.34375 0  0.8125 0.34375 0  0.84375 0.34375 0  0.875 0.34375 0  0.90625 0.34375 0  0.9375 0.34375 0  0.96875 0.34375 0  1 0.34375 0  1.03125 0.34375 0  1.0625 0.34375 0  1.09375 0.34375 0  1.125 0.34375 0  1.15625 0.34375 0  1.1875 0.34375 0  1.21875 0.34375 0  1.25 0.34375 0  1.28125 0.34375 0  1.3125 0.34375 0  1.34375 0.34375 0  1.375 0.34375 0  1
[...]
<PointData  Scalars="f_33"> 
<DataArray  type="Float64"  Name="f_33"  format="ascii">2.0315715633797014e-05  2.0934450085444243e-05  2.1123347606239414e-05  2.0831784762743048e-05  2.0296876243235190e-05  1.9696841302110502e-05  1.9087100693383741e-05  1.8487928436422321e-05  1.7904207117820382e-05  1.7335095656521321e-05  1.6778277646308269e-05  1.6231279545807896e-05  1.5691764936339516e-05  1.5157545970989048e-05  1.4626531185451175e-05  1.4096659835692358e-05  1.3565833724850220e-05  1.3031855019931722e-05  1.2492384020564327e-05  1.1944935829117842e-05  1.1386936207306895e-05  1.0815852472370686e-05  1.0229403975024774e-05  9.6258394673415876e-06  9.0042493085573501e-06  8.3648651152121165e-06  7.7092944579569564e-06  7.0406469315726706e-06  6.3635286764450595e-06  5.6839087807011773e-06  5.0088847479065229e-06  4.3463889457146676e-06  3.7048814086748508e-06  3.0930681598465742e-06  2.5196725760838472e-06  1.9932748975206092e-06  1.5222238102103109e-06  1.1146228687333974e-06  7.7837797602240379e-07  5.2134042103430184e-07  3.5140817762881614e-07  2.7681185495370537e-07  3.0503180446461473e-07  4.3984520000663911e-07  6.6379095792746086e-07  9.6831718360623152e-07  9.8770397513934073e-07  5.7358399250284053e-07  9.3685631476632766e-08  2.0041425308415581e-05  2.0803420652378745e-05  2.1098432688768336e-05  2.0806396890680874e-05  2.0219432175159799e-05  1.9597012079094366e-05  1.8981715273508195e-05  1.8385712627100716e-05  1.7809343176397732e-05  1.7249126411082469e-05  1.6701502441700666e-05  1.6163472183829764e-05  1.5632483762015319e-05  1.5106261454313695e-05  1.4582681320058043e-05  1.4059675671232991e-05  1.3535148794311424e-05  1.3006902041362860e-05  1.2472579401875296e-05  1.1929652954128284e-05  1.1375470698399122e-05  1.0807385640952575e-05  1.0222973274699872e-05  9.6203255078141261e-06  8.9983867419609091e-06  8.3572794397053380e-06  7.6985599719293705e-06  7.0253552260312357e-06  6.3423544631551283e-06  5.6556613722146872e-06  4.9725382008021511e-06  4.3010897425998345e-06  3.6499375829310507e-06  3.0279268921782479e-06  2.4438943297965325e-06  1.9065122242028709e-06  1.4242124570862310e-06  1.0051956616044871e-06  6.5751522455518289e-07  3.8929266647657980e-07  2.0894214727996336e-07  1.2574944209415778e-07  1.4909416295802791e-07  2.8669786758211930e-07  5.2226696405130148e-07  8.6153010513758904e-07  9.1191871436459561e-07  4.6547347642880615e-07  -2.2130204349182778e-07  1.9899674956518614e-05  2.0755278712145394e-05  2.1145595834672323e-05  2.0879809837728444e-05  2.0221586607390851e-05  1.9552693301876777e-05  1.8908709756560405e-05  1.8298759584502505e-05  1.7718515558057829e-05  1.7160171151106381e-05  1.6617450362712269e-05  1.6085831637485015e-05  1.5561930681092159e-05  1.5043019863641597e-05  1.4526735525489827e-05  1.4010888811186635e-05  1.3493322276502503e-05  1.2971789700383484e-05  1.2443861757385021e-05  1.1906876376892664e-05  1.1357961190889016e-05  1.0794154881307803e-05  1.0212641994923151e-05  9.6110916878875645e-06  8.9880597870937220e-06  8.3433861008623426e-06  7.6785077397140154e-06  6.9966220993390112e-06  6.3026673627556015e-06  5.6031312205158040e-06  4.9057343805384784e-06  4.2190538028006188e-06  3.5521498904624001e-06  2.9142476693057484e-06  2.3145026350150865e-06  1.7618657358602068e-06  1.2650504437136785e-06  8.3261330030592103e-07  4.7314748645480191e-07  1.9568499596470571e-07  1.0189559168734312e-08  -7.1404994553650355e-08  -3.5881322382490174e-08  1.2913205645154351e-07  4.0838723715917819e-07  8.0180011215122087e-07  8.4226658248616099e-07  3.2681759437184330e-07  -5.3460268322962854e-07  1.9885944907798667e-05  2.0776047336271986e-05  2.1223779167279132e-05  2.0985226454525003e-05  2.0272740973172551e-05  1.9557475775783021e-05  1.8874481537529021e-05  1.8239063127936099e-05  1.7645108897881226e-05  1.7081297561475929e-05  1.6538460879605885e-05  1.6010050767871831e-05  1.5491347698790330e-05  1.4978783001709427e-05  1.4469482768995541e-05  1.3960959466822561e-05  1.3450879394053132e-05  1.2936868247867582e-05  1.2416348673803976e-05  1.1886428457201837e-05  1.1343875070527988e-05  1.0785217748320008e-05  1.0207006330547742e-05  9.6062237300066203e-06  8.9808013862324616e-06  8.3301413739041502e-06  7.6555279639753107e-06  6.9603307977118354e-06  6.2499568483817481e-06  5.5315755463041803e-06  4.8136932541454310e-06  4.1056738298158166e-06  3.4172926136500136e-06  2.7583843550568450e-06  2.1386158936310803e-06  1.5673931880400019e-06  1.0539011108152398e-06  6.0728739053425194e-07  2.3699411763572381e-07  -4.6662678577514947e-08  -2.3181563729124288e-07  -3.0393457494430623e-07  -2.4702558129417949e-07  -4.7627002388693772e-08  2.7383718782470276e-07  7.0108577785124473e-07  7.2496329557502292e-07  1.4508411215179642e-07  -7.9486258382145098e-07  1.9979374526277050e-05  2.0885547370655228e-05  2.1354929584156659e-05  2.1118681650542774e-05  2.0365937813748309e-05  1.9608598512807619e-05  1.8883749532477675e-05  1.8216741625595912e-05  1.7601686817789521e-05  1.7025535346219070e-05  1.6476959963943632e-05  1.5947477252609138e-05  1.5430858402599327e-05  1.4922461037034081e-05  1.4418689786636928e-05  1.3916593843714661e-05  1.3413544842703289e-05  1.2906954986722754e-05  1.2394024859182780e-05  1.1871542094687788e-05  1.1335780191339045e-05  1.0782562610557486e-05  1.0207548369499981e-05  9.6067513683682118e-06  8.9772300784228044e-06  8.3178043945025233e-06  7.6296163326328464e-06  6.9163828909374240e-06  6.1842842858386819e-06  5.4415421674986683e-06  4.6978188059117171e-06  3.9635862402752837e-06  3.2495846171438514e-06  2.5664386593490981e-06  1.9244551142209345e-06  1.3335961963203593e-06  8.0361352045441639e-07  3.4434316369703549e-07  -3.3846716114859415e-08  -3.1938010023325179e-07  -4.9879393375258719e-07  -5.5587419017026868e-07  -4.7373608981579623e-07  -2.4055798444044265e-07  1.1603326239325028e-07  5.6638815396725138e-07  5.8268424281672246e-07  -2.6309897529746130e-08  -9.9429619080368254e-07  2.0145437584716076e-05  2.1058054006637477e-05  2.1529094334095917e-05  2.1280103262586442e-05  2.0493129206044252e-05  1.9696493323974216e-05  1.8931057214556137e-05  1.8230692535421472e-05  1.7590576078026441e-05  1.6997475640595961e-05  1.6438779486875688e-05  1.5904467678514082e-05  1.5386906926299832e-05  1.4880338047510298e-05  1.4380343654159037e-05  1.3883405332813831e-05  1.3386516338526369e-05  1.2886816391621797e-05  1.2381237051620523e-05  1.1866183402602937e-05  1.1337320817582200e-05  1.0789569584478678e-05  1.0217411754354470e-05  9.6155574620173319e-06  8.9798955927469834e-06  8.3085096986783874e-06  7.6024605503157179e-06  6.8660914719718003e-06  6.1067848308343638e-06  5.3342893902776241e-06  4.5598490288223194e-06  3.7953631727601315e-06  3.0527353912659833e-06  2.3434759238425290e-06  1.6785555641556843e-06  1.0684755514666550e-06  5.2351204436298349e-07  5.4115137985757673e-08  -3.2856853680549521e-07  -6.1200947229506634e-07  -7.8174222284036989e-07  -8.2086931977764426e-07  -7.1293848735656608e-07  -4.4880489085156669e-07  -6.2285757252963979e-08  4.0854794340378859e-07  4.2729906622748586e-07  -1.8996811760711865e-07  -1.1658389093947270e-06  2.0355701957499069e-05  2.1270338286356360e-05  2.1734758988041828e-05  2.1466773432584316e-05  2.0647330839464047e-05  1.9813467354469955e-05  1.9010152177583464e-05  1.8276908734765096e-05  1.7610361152512778e-05  1.6997913579169963e-05  1.6426303057228328e-05  1.5884425724213812e-05  1.5363485292024084e-05  1.4856690152837973e-05  1.4358795224312263e-05  1.3865674726165712e-05  1.3373905596660065e-05  1.2880336173082476e-05  1.2381625297163798e-05  1.1873778986887189e-05  1.1351775956113024e-05  1.0809438772298945e-05  1.0239738262683826e-05  9.6356541917158388e-06  8.9915173637935595e-06  8.3044917586972231e-06  7.5756912532193185e-06  6.8105245453451556e-06  6.0181895619521666e-06  5.2105770701253132e-06  4.4009938325388395e-06  3.6030550959958529e-06  2.8299325513773903e-06  2.0939900404495569e-06  1.4067482716214121e-06  7.7909211141596830e-07  2.2164277489551465e-07  -2.5474942563258571e-07  -6.3844426315478749e-07  -9.1637038462114573e-07  -1.0736448605304068e-06  -1.0934172756992313e-06  -9.6030206516237380e-07  -6.6780049618109976e-07  -2.5432348439169292e-07  2.3701715020146019e-07  2.6505079433252420e-07  -3.4992754292473296e-07  -1.3259019497717551e-06  2.0589782050597260e-05  2.1504451779911166e-05  2.1959504095127563e-05  2.1670880497719536e-05  2.0820468526564243e-05  1.9952003709561183e-05  1.9113985763032391e-05  1.8349637994791346e-05  1.7657162104190386e-05  1.7024812104111767e-05  1.6439063458096846e-05  1.5888111766797749e-05  1.5362257364135753e-05  1.4853812450037153e-05  1.4356753678921111e-05  1.3866352949140823e-05  1.3378769372320926e-05  1.2890578605452984e-05  1.2398212128623905e-05  1.1897321994966390e-05  1.1382179039887807e-05  1.0845328405193798e-05  1.0277828454863718e-05  9.6703533616994462e-06  9.0151277967654771e-06  8.3081580389476672e-06  7.5508670148211679e-06  6.7504271706736147e-06  5.9187409118540621e-06  5.0706329173786907e-06  4.2219870001070436e-06  3.3883334611717262e-06  2.5840588189701592e-06  1.8221723241628744e-06  1.1144676234149251e-06  4.7192100813380205e-07  -9.4790307734964578e-08  -5.7471185422042825e-07  -9.5604001071945445e-07  -1.2255526490230201e-06  -1.3683971758536490e-06  -1.3681944598318814e-06  -1.2108083654808463e-06  -8.9199231094430997e-07  -4.5345450278489577e-07  5.8467726724364342e-08  9.9206590770180183e-08  -5.0894650001762339e-07  -1.4823468644518615e-06  2.0832763339219060e-05  2.1746677996338249e-05  2.2191926454486615e-05  2.1883243520015947e-05  2.1004202253206056e-05  2.0104373186362254e-05  1.9235104656233029e-05  1.8442315239931473e-05  1.7725681996632478e-05  1.7074255695742770e-05  1.6474485507862065e-05  1.5914139325470374e-05  1.5382831593274988e-05  1.4872116679952657e-05  1.4375260953737742e-05  1.3886956492170641e-05  1.3402957773413998e-05  1.2919606222930444e-05  1.2433192377563035e-05  1.1939130565090153e-05  1.1431049302763142e-05  1.0900079535781407e-05  1.0334885464111287e-05  9.7230289077033065e-06  9.0538071691179448e-06  8.3217366982338601e-06  7.5290250002093157e-06  6.6857418426665177e-06  5.8077905106591164e-06  4.9139177644038604e-06  4.0230567562643462e-06  3.1526543850921643e-06  2.3180095829585591e-06  1.5323418866689674e-06  8.0726875344054049e-07  1.5345212761808330e-07  -4.1872696610095245e-07  -8.9852544480887954e-07  -1.2742798867026595e-06  -1.5329223683256808e-06  -1.6599167672432784e-06  -1.6395485459204338e-06  -1.4588891151855681e-06  -1.1155167099875634e-06  -6.5355612842603054e-07  -1.2163856150676990e-07  -6.7091888546862226e-08  -6.6679002609226830e-07  -1.6367797067383654e-06  2.1072888829385253e-05  2.1985821671169263e-05  2.2421831306172006e-05  2.2094799517352967e-05  2.1190179376315043e-05  2.0262645734458590e-05  1.9365867744056889e-05  1.8547907504807809e-05  1.7809707694999755e-05  1.7141017372219397e-05  1.6528393562426269e-05  1.5959351477357765e-05  1.5422987178578383e-05  1.4910219172507899e-05  1.4413669125722985e-05  1.3927468176992589e-05  1.3446970133672907e-05  1.2968310230338917e-05  1.2487740370508618e-05  1.2000619054654886e-05  1.1500122540817610e-05  1.0975932673128401e-05  1.0413770677446529e-05  9.7969277635250886e-06  9.1104727838502359e-06  8.3469405113462067e-06  7.5102187574793426e-06  6.6151546808673411e-06  5.6835270044203647e-06  4.7391373952034466e-06  3.8042199315281245e-06  2.8977626018112989e-06  2.0353144231690095e-06  1.2296096133352362e-06  4.9149059211725990e-07  -1.6916168608827962e-07  -7.4261388994010342e-07  -1.2186065767747139e-06  -1.5858416069303552e-06  -1.8315964419235027e-06  -1.9417919227056046e-06  -1.9014182152756167e-06  -1.6986163577216188e-06  -1.3324218872711950e-06  -8.4878804126785337e-07  -2.9811252188310019e-07  -2.3002555978185671e-07  -8.2108717595881189e-07  -1.7875550459810377e-06  2.1300367842343071e-05  2.2212360874285793e-05  2.2640175636503981e-05  2.2297067697332352e-05  2.1370312190890266e-05  2.0418974848045285e-05  1.9498639174500747e-05  1.8659129524788178e-05  1.7902444320247809e-05  1.7218947728615255e-05  1.6595372519059598e-05  1.6019096697265792e-05  1.5478831921155347e-05  1.4964969840801023e-05  1.4469549683987582e-05  1.3986153094373309e-05  1.3509713241385033e-05  1.3036142321065474e-05  1.2561726054993729e-05  1.2081972456016278e-05  1.1589956147812357e-05  1.1074082201025745e-05  1.0516614698036533e-05  9.8948980542308002e-06  9.1875910884391220e-06  8.3844899646756227e-06  7.4929020255050662e-06  6.5356173964864889e-06  5.5428973235503220e-06  4.5446299568701793e-06  3.5660245961123370e-06  2.6266094434518252e-06  1.7410725410215489e-06  9.2073354551872844e-07  1.7499272713127190e-07  -4.8748511255232920e-07  -1.0578844186035657e-06  -1.5265981864676027e-06  -1.8828044580688679e-06  -2.1141963238332826e-06  -2.2071718024257719e-06  -2.1473668479784693e-06  -1.9238150472820274e-06  -1.5367026199237635e-06  -1.0333910912119650e-06  -4.6568498373013043e-07  -3.8509406039190179e-07  -9.6805778820053322e-07  -1.9312056240678172e-06  2.1506848048862946e-05  2.2418068194770009e-05  2.2838958809298898e-05  2.2482298936060167e-05  2.1537005658464681e-05  2.0565845993561755e-05  1.9625974336387907e-05  1.8768667979906523e-05  1.7996802807421210e-05  1.7301288066654663e-05  1.6669065664956575e-05  1.6087465480155048e-05  1.5544934697452117e-05  1.5031449855313183e-05  1.4538544362052009e-05  1.4059274254538981e-05  1.3588117316488763e-05  1.3120685287384049e-05  1.2653278896223640e-05  1.2181675283938655e-05  1.1699351607317103e-05  1.1193951319200027e-05  1.0644154604321460e-05  1.0018938090613400e-05  9.2866975927209869e-06  8.4333619420817190e-06  7.4731254116266549e-06  6.4420257703097655e-06  5.3820738854430691e-06  4.3295023501372321e-06  3.3110102060444710e-06  2.3448076332850647e-06  1.4432005754668253e-06  6.1508653884472767e-07  -1.3214565628894538e-07  -7.9132007469327458e-07  -1.3546410691499311e-06  -1.8131719231532458e-06  -2.1565473015780822e-06  -2.3728341426473364e-06  -2.4488359381178171e-06  -2.3707135841363936e-06  -2.1282015225396367e-06  -1.7223733907528717e-06  -1.2016699520380099e-06  -6.1901243188274493e-07  -5.2738649096286061e-07  -1.1031597795687765e-06  -2.0633398130540319e-06  2.1685204016565353e-05  2.2595869249051085e-05  2.3011194921002781e-05  2.2643585222770245e-05  2.1683353873822588e-05  2.0696303250989000e-05  1.9740848876129952e-05  1.8869448839622728e-05  1.8085702115355958e-05  1.7380996981907075e-05  1.6742501719544328e-05  1.6157575162830592e-05  1.5614517482001765e-05  1.5103019605379131e-05  1.4614224793593393e-05  1.4140738394996851e-05  1.3676580805826320e-05  1.3216968966360597e-05  1.2758066080309787e-05  1.2295787634972507e-05  1.1824502734048092e-05  1.1331990332441353e-05  1.0794546451462197e-05  1.0169246336151449e-05  9.4073398162444420e-06  8.4895392087905762e-06  7.4437142873066329e-06  6.3276495911735683e-06  5.1982135432032821e-06  4.0960830651188221e-06  3.0461391080300615e-06  2.0626077576196974e-06  1.1538219513280359e-06  3.2551193021549489e-07  -4.1717718940932714e-07  -1.0685333205841340e-06  -1.6216549043931910e-06  -2.0681291456778397e-06  -2.3979109308214873e-06  -2.5993156382863107e-06  -2.6594232428757911e-06  -2.5647682554372750e-06  -2.3055954861006380e-06  -1.8836349250851018e-06  -1.3481313035419372e-06  -7.5286743619828200e-07  -6.5193188473754260e-07  -1.2216225513590975e-06  -2.1792704798039230e-06  2.1829486936604262e-05  2.2739827090923941e-05  2.3150959707475996e-05  2.2774986684968483e-05  2.1803331592264546e-05  2.0804182784562581e-05  1.9836927058601378e-05  1.8954949442702347e-05  1.8162426678524848e-05  1.7451154894757827e-05  1.6808530428750421e-05  1.6222002435289276e-05  1.5679834499684846e-05  1.5171576154029330e-05  1.4688142133995880e-05  1.4221842379190984e-05  1.3766343536883070e-05  1.3316476429728720e-05  1.2868058187705393e-05  1.2416731635513275e-05  1.1957746679462166e-05  1.1479896942337236e-05  1.0961248916556916e-05  1.0341700590247862e-05  9.5444665901461742e-06  8.5443574926923379e-06  7.3945740912979655e-06  6.1869379503447033e-06  4.9938243779479766e-06  3.8542661313935550e-06  2.7861276851803577e-06  1.7969843813285030e-06  8.9030379046509410e-07  6.8633074239983049e-08  -6.6481262843146719e-07  -1.3054067743957681e-06  -1.8468064356215947e-06  -2.2808587787427376e-06  -2.5976386467675865e-06  -2.7855508167886863e-06  -2.8318080302472492e-06  -2.7231678562756600e-06  -2.4502117192089695e-06  -2.0151249798666287e-06  -1.4677201125367610e-06  -8.6241192723532625e-07  -7.5405976052100472e-07  -1.3188959712401593e-06  -2.2745016655242723e-06  2.1934960787931864e-05  2.2845198388454389e-05  2.3253486006740880e-05  2.2871677804567811e-05  2.1891989874635074e-05  2.0884355711513771e-05  1.9908854845497618e-05  1.9019551067285129e-05  1.8221050441650725e-05  1.7505470680371932e-05  1.6860412426009893e-05  1.6273445156767396e-05  1.5732876333131449e-05  1.5228240381514550e-05  1.4750392550660193e-05  1.4291552661103311e-05  1.3845260872323320e-05  1.3406183399247193e-05  1.2969816880685556e-05  1.2531272366602070e-05  1.2085636307031178e-05  1.1622456655698873e-05  1.1128962004946363e-05  1.0520797974369685e-05  9.6827311254275778e-06  8.5848615029655719e-06  7.3181335669849700e-06  6.0238366854420358e-06  4.7850538320416033e-06  3.6273793622278710e-06  2.5565193496280383e-06  1.5726097104978164e-06  6.7498129987457711e-07  -1.3602554039051856e-07  -8.5830264592743762e-07  -1.4877085402012671e-06  -2.0180504430342609e-06  -2.4411672056019126e-06  -2.7470755395871952e-06  -2.9241397397995702e-06  -2.9595910056936945e-06  -2.8402885225706319e-06  -2.5570071969744814e-06  -2.1122186656869837e-06  -1.5561003660737250e-06  -9.4349275794058205e-07  -8.2973685824712647e-07  -1.3910261472174249e-06  -2.3451174831216320e-06  2.1998177206072165e-05  2.2908521408469506e-05  2.3315278105016808e-05  2.2930096505166189e-05  2.1945644796961935e-05  2.0932963809584418e-05  1.9952552978533753e-05  1.9058905263347373e-05  1.8256897717908981e-05  1.7538861870529000e-05  1.6892545045823020e-05  1.6305620836462542e-05  1.5766463873000099e-05  1.5264653878515544e-05  1.4791085071601312e-05  1.4338028109654091e-05  1.3899098665073611e-05  1.3469079123954975e-05  1.3043477423025227e-05  1.2617250306967771e-05  1.2184280665047835e-05  1.1734070348758160e-05  1.1267098806417398e-05  1.0667440643735511e-05  9.7908759606824237e-06  8.6049542572615385e-06  7.2272619025041975e-06  5.8685508963939040e-06  4.6121435392073951e-06  3.4559577265284103e-06  2.3932081963419301e-06  1.4194808573630773e-06  5.3229877205288891e-07  -2.6872353165066401e-07  -9.8171408467834730e-07  -1.6025272778048830e-06  -2.1248575563008987e-06  -2.5403999847595059e-06  -2.8390416373377370e-06  -3.0090571711326058e-06  -3.0376421911934198e-06  -2.9116820631051425e-06  -2.6220391685526918e-06  -2.1713334904134021e-06  -1.6099329314544109e-06  -9.9291750796509783e-07  -8.7585738851144311e-07  -1.4349598319216323e-06  -2.3880894023164197e-06  2.2017053947589278e-05  2.2927703545882853e-05  2.3334216970728700e-05  2.2948073244138281e-05  2.1962036980241810e-05  2.0947619884481779e-05  1.9965471685533503e-05  1.9070262135713803e-05  1.8266971510102283e-05  1.7548018558896897e-05  1.6901209772617469e-05  1.6314263288980129e-05  1.5775584156880420e-05  1.5274775397657693e-05  1.4802754251191233e-05  1.4351822676711566e-05  1.3915645341373088e-05  1.3489082155966564e-05  1.3067690514053958e-05  1.2646576436744565e-05  1.2219021215846814e-05  1.1775466011247859e-05  1.1322285845400895e-05  1.0732473348986196e-05  9.8338857871439263e-06  8.6169924295876403e-06  7.1883903647103098e-06  5.7942155610976878e-06  4.5398032978506842e-06  3.3898074792211026e-06  2.3331913051546700e-06  1.3649703334421524e-06  4.8269652360007439e-07  -3.1398695139063092e-07  -1.0231534162159699e-06  -1.6405791495244748e-06  -2.1598714991828993e-06  -2.5726437489035305e-06  -2.8687156215059