<?xml version="1.0"?>
<VTKFile type="UnstructuredGrid"  version="0.1"  >
<UnstructuredGrid>
<Piece  NumberOfPoints="1617" NumberOfCells="3072">
<Points>
<DataArray  type="Float64"  NumberOfComponents="3"  format="ascii">0 0 0  0.03125 0 0  0.0625 0 0  0.09375 0 0  0.125 0 0  0.15625 0 0  0.1875 0 0  0.21875 0 0  0.25 0 0  0.28125 0 0  0.3125 0 0  0.34375 0 0  0.375 0 0  0.40625 0 0  0.4375 0 0  0.46875 0 0  0.5 0 0  0.53125 0 0  0.5625 0 0  0.59375 0 0  0.625 0 0  0.65625 0 0  0.6875 0 0  0.71875 0 0  0.75 0 0  0.78125 0 0  0.8125 0 0  0.84375 0 0  0.875 0 0  0.90625 0 0  0.9375 0 0  0.96875 0 0  1 0 0  1.03125 0 0  1.0625 0 0  1.09375 0 0  1.125 0 0  1.15625 0 0  1.1875 0 0  1.21875 0 0  1.25 0 0  1.28125 0 0  1.3125 0 0  1.34375 0 0  1.375 0 0  1.40625 0 0  1.4375 0 0  1.46875 0 0  1.5 0 0  0 0.03125 0  0.03125 0.03125 0  0.0625 0.03125 0  0.09375 0.03125 0  0.125 0.03125 0  0.15625 0.03125 0  0.1875 0.03125 0  0.21875 0.03125 0  0.25 0.03125 0  0.28125 0.03125 0  0.3125 0.03125 0  0.34375 0.03125 0  0.375 0.03125 0  0.40625 0.03125 0  0.4375 0.03125 0  0.46875 0.03125 0  0.5 0.03125 0  0.53125 0.03125 0  0.5625 0.03125 0  0.59375 0.03125 0  0.625 0.03125 0  0.65625 0.03125 0  0.6875 0.03125 0  0.71875 0.03125 0  0.75 0.03125 0  0.78125 0.03125 0  0.8125 0.03125 0  0.84375 0.03125 0  0.875 0.03125 0  0.90625 0.03125 0  0.9375 0.03125 0  0.96875 0.03125 0  1 0.03125 0  1.03125 0.03125 0  1.0625 0.03125 0  1.09375 0.03125 0  1.125 0.03125 0  1.15625 0.03125 0  1.1875 0.03125 0  1.21875 0.03125 0  1.25 0.03125 0  1.28125 0.03125 0  1.3125 0.03125 0  1.34375 0.03125 0  1.375 0.03125 0  1.40625 0.03125 0  1.4375 0.03125 0  1.46875 0.03125 0  1.5 0.03125 0  0 0.0625 0  0.03125 0.0625 0  0.0625 0.0625 0  0.09375 0.0625 0  0.125 0.0625 0  0.15625 0.0625 0  0.1875 0.0625 0  0.21875 0.0625 0  0.25 0.0625 0  0.28125 0.0625 0  0.3125 0.0625 0  0.34375 0.0625 0  0.375 0.0625 0  0.40625 0.0625 0  0.4375 0.0625 0  0.46875 0.0625 0  0.5 0.0625 0  0.53125 0.0625 0  0.5625 0.0625 0  0.59375 0.0625 0  0.625 0.0625 0  0.65625 0.0625 0  0.6875 0.0625 0  0.71875 0.0625 0  0.75 0.0625 0  0.78125 0.0625 0  0.8125 0.0625 0  0.84375 0.0625 0  0.875 0.0625 0  0.90625 0.0625 0  0.9375 0.0625 0  0.96875 0.0625 0  1 0.0625 0  1.03125 0.0625 0  1.0625 0.0625 0  1.09375 0.0625 0  1.125 0.0625 0  1.15625 0.0625 0  1.1875 0.0625 0  1.21875 0.0625 0  1.25 0.0625 0  1.28125 0.0625 0  1.3125 0.0625 0  1.34375 0.0625 0  1.375 0.0625 0  1.40625 0.0625 0  1.4375 0.0625 0  1.46875 0.0625 0  1.5 0.0625 0  0 0.09375 0  0.03125 0.09375 0  0.0625 0.09375 0  0.09375 0.09375 0  0.125 0.09375 0  0.15625 0.09375 0  0.1875 0.09375 0  0.21875 0.09375 0  0.25 0.09375 0  0.28125 0.09375 0  0.3125 0.09375 0  0.34375 0.09375 0  0.375 0.09375 0  0.40625 0.09375 0  0.4375 0.09375 0  0.46875 0.09375 0  0.5 0.09375 0  0.53125 0.09375 0  0.5625 0.09375 0  0.59375 0.09375 0  0.625 0.09375 0  0.65625 0.09375 0  0.6875 0.09375 0  0.71875 0.09375 0  0.75 0.09375 0  0.78125 0.09375 0  0.8125 0.09375 0  0.84375 0.09375 0  0.875 0.09375 0  0.90625 0.09375 0  0.9375 0.09375 0  0.96875 0.09375 0  1 0.09375 0  1.03125 0.09375 0  1.0625 0.09375 0  1.09375 0.09375 0  1.125 0.09375 0  1.15625 0.09375 0  1.1875 0.09375 0  1.21875 0.09375 0  1.25 0.09375 0  1.28125 0.09375 0  1.3125 0.09375 0  1.34375 0.09375 0  1.375 0.09375 0  1.40625 0.09375 0  1.4375 0.09375 0  1.46875 0.09375 0  1.5 0.09375 0  0 0.125 0  0.03125 0.125 0  0.0625 0.125 0  0.09375 0.125 0  0.125 0.125 0  0.15625 0.125 0  0.1875 0.125 0  0.21875 0.125 0  0.25 0.125 0  0.28125 0.125 0  0.3125 0.125 0  0.34375 0.125 0  0.375 0.125 0  0.40625 0.125 0  0.4375 0.125 0  0.46875 0.125 0  0.5 0.125 0  0.53125 0.125 0  0.5625 0.125 0  0.59375 0.125 0  0.625 0.125 0  0.65625 0.125 0  0.6875 0.125 0  0.71875 0.125 0  0.75 0.125 0  0.78125 0.125 0  0.8125 0.125 0  0.84375 0.125 0  0.875 0.125 0  0.90625 0.125 0  0.9375 0.125 0  0.96875 0.125 0  1 0.125 0  1.03125 0.125 0  1.0625 0.125 0  1.09375 0.125 0  1.125 0.125 0  1.15625 0.125 0  1.1875 0.125 0  1.21875 0.125 0  1.25 0.125 0  1.28125 0.125 0  1.3125 0.125 0  1.34375 0.125 0  1.375 0.125 0  1.40625 0.125 0  1.4375 0.125 0  1.46875 0.125 0  1.5 0.125 0  0 0.15625 0  0.03125 0.15625 0  0.0625 0.15625 0  0.09375 0.15625 0  0.125 0.15625 0  0.15625 0.15625 0  0.1875 0.15625 0  0.21875 0.15625 0  0.25 0.15625 0  0.28125 0.15625 0  0.3125 0.15625 0  0.34375 0.15625 0  0.375 0.15625 0  0.40625 0.15625 0  0.4375 0.15625 0  0.46875 0.15625 0  0.5 0.15625 0  0.53125 0.15625 0  0.5625 0.15625 0  0.59375 0.15625 0  0.625 0.15625 0  0.65625 0.15625 0  0.6875 0.15625 0  0.71875 0.15625 0  0.75 0.15625 0  0.78125 0.15625 0  0.8125 0.15625 0  0.84375 0.15625 0  0.875 0.15625 0  0.90625 0.15625 0  0.9375 0.15625 0  0.96875 0.15625 0  1 0.15625 0  1.03125 0.15625 0  1.0625 0.15625 0  1.09375 0.15625 0  1.125 0.15625 0  1.15625 0.15625 0  1.1875 0.15625 0  1.21875 0.15625 0  1.25 0.15625 0  1.28125 0.15625 0  1.3125 0.15625 0  1.34375 0.15625 0  1.375 0.15625 0  1.40625 0.15625 0  1.4375 0.15625 0  1.46875 0.15625 0  1.5 0.15625 0  0 0.1875 0  0.03125 0.1875 0  0.0625 0.1875 0  0.09375 0.1875 0  0.125 0.1875 0  0.15625 0.1875 0  0.1875 0.1875 0  0.21875 0.1875 0  0.25 0.1875 0  0.28125 0.1875 0  0.3125 0.1875 0  0.34375 0.1875 0  0.375 0.1875 0  0.40625 0.1875 0  0.4375 0.1875 0  0.46875 0.1875 0  0.5 0.1875 0  0.53125 0.1875 0  0.5625 0.1875 0  0.59375 0.1875 0  0.625 0.1875 0  0.65625 0.1875 0  0.6875 0.1875 0  0.71875 0.1875 0  0.75 0.1875 0  0.78125 0.1875 0  0.8125 0.1875 0  0.84375 0.1875 0  0.875 0.1875 0  0.90625 0.1875 0  0.9375 0.1875 0  0.96875 0.1875 0  1 0.1875 0  1.03125 0.1875 0  1.0625 0.1875 0  1.09375 0.1875 0  1.125 0.1875 0  1.15625 0.1875 0  1.1875 0.1875 0  1.21875 0.1875 0  1.25 0.1875 0  1.28125 0.1875 0  1.3125 0.1875 0  1.34375 0.1875 0  1.375 0.1875 0  1.40625 0.1875 0  1.4375 0.1875 0  1.46875 0.1875 0  1.5 0.1875 0  0 0.21875 0  0.03125 0.21875 0  0.0625 0.21875 0  0.09375 0.21875 0  0.125 0.21875 0  0.15625 0.21875 0  0.1875 0.21875 0  0.21875 0.21875 0  0.25 0.21875 0  0.28125 0.21875 0  0.3125 0.21875 0  0.34375 0.21875 0  0.375 0.21875 0  0.40625 0.21875 0  0.4375 0.21875 0  0.46875 0.21875 0  0.5 0.21875 0  0.53125 0.21875 0  0.5625 0.21875 0  0.59375 0.21875 0  0.625 0.21875 0  0.65625 0.21875 0  0.6875 0.21875 0  0.71875 0.21875 0  0.75 0.21875 0  0.78125 0.21875 0  0.8125 0.21875 0  0.84375 0.21875 0  0.875 0.21875 0  0.90625 0.21875 0  0.9375 0.21875 0  0.96875 0.21875 0  1 0.21875 0  1.03125 0.21875 0  1.0625 0.21875 0  1.09375 0.21875 0  1.125 0.21875 0  1.15625 0.21875 0  1.1875 0.21875 0  1.21875 0.21875 0  1.25 0.21875 0  1.28125 0.21875 0  1.3125 0.21875 0  1.34375 0.21875 0  1.375 0.21875 0  1.40625 0.21875 0  1.4375 0.21875 0  1.46875 0.21875 0  1.5 0.21875 0  0 0.25 0  0.03125 0.25 0  0.0625 0.25 0  0.09375 0.25 0  0.125 0.25 0  0.15625 0.25 0  0.1875 0.25 0  0.21875 0.25 0  0.25 0.25 0  0.28125 0.25 0  0.3125 0.25 0  0.34375 0.25 0  0.375 0.25 0  0.40625 0.25 0  0.4375 0.25 0  0.46875 0.25 0  0.5 0.25 0  0.53125 0.25 0  0.5625 0.25 0  0.59375 0.25 0  0.625 0.25 0  0.65625 0.25 0  0.6875 0.25 0  0.71875 0.25 0  0.75 0.25 0  0.78125 0.25 0  0.8125 0.25 0  0.84375 0.25 0  0.875 0.25 0  0.90625 0.25 0  0.9375 0.25 0  0.96875 0.25 0  1 0.25 0  1.03125 0.25 0  1.0625 0.25 0  1.09375 0.25 0  1.125 0.25 0  1.15625 0.25 0  1.1875 0.25 0  1.21875 0.25 0  1.25 0.25 0  1.28125 0.25 0  1.3125 0.25 0  1.34375 0.25 0  1.375 0.25 0  1.40625 0.25 0  1.4375 0.25 0  1.46875 0.25 0  1.5 0.25 0  0 0.28125 0  0.03125 0.28125 0  0.0625 0.28125 0  0.09375 0.28125 0  0.125 0.28125 0  0.15625 0.28125 0  0.1875 0.28125 0  0.21875 0.28125 0  0.25 0.28125 0  0.28125 0.28125 0  0.3125 0.28125 0  0.34375 0.28125 0  0.375 0.28125 0  0.40625 0.28125 0  0.4375 0.28125 0  0.46875 0.28125 0  0.5 0.28125 0  0.53125 0.28125 0  0.5625 0.28125 0  0.59375 0.28125 0  0.625 0.28125 0  0.65625 0.28125 0  0.6875 0.28125 0  0.71875 0.28125 0  0.75 0.28125 0  0.78125 0.28125 0  0.8125 0.28125 0  0.84375 0.28125 0  0.875 0.28125 0  0.90625 0.28125 0  0.9375 0.28125 0  0.96875 0.28125 0  1 0.28125 0  1.03125 0.28125 0  1.0625 0.28125 0  1.09375 0.28125 0  1.125 0.28125 0  1.15625 0.28125 0  1.1875 0.28125 0  1.21875 0.28125 0  1.25 0.28125 0  1.28125 0.28125 0  1.3125 0.28125 0  1.34375 0.28125 0  1.375 0.28125 0  1.40625 0.28125 0  1.4375 0.28125 0  1.46875 0.28125 0  1.5 0.28125 0  0 0.3125 0  0.03125 0.3125 0  0.0625 0.3125 0  0.09375 0.3125 0  0.125 0.3125 0  0.15625 0.3125 0  0.1875 0.3125 0  0.21875 0.3125 0  0.25 0.3125 0  0.28125 0.3125 0  0.3125 0.3125 0  0.34375 0.3125 0  0.375 0.3125 0  0.40625 0.3125 0  0.4375 0.3125 0  0.46875 0.3125 0  0.5 0.3125 0  0.53125 0.3125 0  0.5625 0.3125 0  0.59375 0.3125 0  0.625 0.3125 0  0.65625 0.3125 0  0.6875 0.3125 0  0.71875 0.3125 0  0.75 0.3125 0  0.78125 0.3125 0  0.8125 0.3125 0  0.84375 0.3125 0  0.875 0.3125 0  0.90625 0.3125 0  0.9375 0.3125 0  0.96875 0.3125 0  1 0.3125 0  1.03125 0.3125 0  1.0625 0.3125 0  1.09375 0.3125 0  1.125 0.3125 0  1.15625 0.3125 0  1.1875 0.3125 0  1.21875 0.3125 0  1.25 0.3125 0  1.28125 0.3125 0  1.3125 0.3125 0  1.34375 0.3125 0  1.375 0.3125 0  1.40625 0.3125 0  1.4375 0.3125 0  1.46875 0.3125 0  1.5 0.3125 0  0 0.34375 0  0.03125 0.34375 0  0.0625 0.34375 0  0.09375 0.34375 0  0.125 0.34375 0  0.15625 0.34375 0  0.1875 0.34375 0  0.21875 0.34375 0  0.25 0.34375 0  0.28125 0.34375 0  0.3125 0.34375 0  0.34375 0.34375 0  0.375 0.34375 0  0.40625 0.34375 0  0.4375 0.34375 0  0.46875 0.34375 0  0.5 0.34375 0  0.53125 0.34375 0  0.5625 0.34375 0  0.59375 0.34375 0  0.625 0.34375 0  0.65625 0.34375 0  0.6875 0.34375 0  0.71875 0.34375 0  0.75 0.34375 0  0.78125 0.34375 0  0.8125 0.34375 0  0.84375 0.34375 0  0.875 0.34375 0  0.90625 0.34375 0  0.9375 0.34375 0  0.96875 0.34375 0  1 0.34375 0  1.03125 0.34375 0  1.0625 0.34375 0  1.09375 0.34375 0  1.125 0.34375 0  1.15625 0.34375 0  1.1875 0.34375 0  1.21875 0.34375 0  1.25 0.34375 0  1.28125 0.34375 0  1.3125 0.34375 0  1.34375 0.34375 0  1.375 0.34375 0  1
[...]
<PointData  Scalars="f_33"> 
<DataArray  type="Float64"  Name="f_33"  format="ascii">2.0423132026946082e-05  2.1061861081394712e-05  2.1313522884599423e-05  2.1091444255900193e-05  2.0597973002731899e-05  2.0006042823748831e-05  1.9380647863509545e-05  1.8754030933524890e-05  1.8139313687567617e-05  1.7539703977658464e-05  1.6954371855586048e-05  1.6381203233751251e-05  1.5817840411625390e-05  1.5261981548997278e-05  1.4711415416057053e-05  1.4163975568360560e-05  1.3617475660984816e-05  1.3069649298344886e-05  1.2518111093063537e-05  1.1960357066127299e-05  1.1393822963380000e-05  1.0816014601263357e-05  1.0224713551874304e-05  9.6182452472387854e-06  8.9957785427182947e-06  8.3576116709637791e-06  7.7053951611103003e-06  7.0422507481576243e-06  6.3727649035655347e-06  5.7028603979556076e-06  5.0395716794432458e-06  4.3907638572067591e-06  3.7648386124569732e-06  3.1704648592652459e-06  2.6163613458098278e-06  2.1111469169360726e-06  1.6632632745179439e-06  1.2809724236818214e-06  9.7240611621358185e-07  7.4566354598866672e-07  6.0867290956300636e-07  5.6864938628002162e-07  6.2891104982190209e-07  7.8330500055895038e-07  9.9851749338106962e-07  1.2535814554919935e-06  1.1905601749038831e-06  7.1268400794422074e-07  2.1678439958084441e-07  2.0135668278598654e-05  2.0915283624644020e-05  2.1279527099473187e-05  2.1070138782980598e-05  2.0531586274896083e-05  1.9917395273812707e-05  1.9283208474146757e-05  1.8656297356427735e-05  1.8046534446728291e-05  1.7454490630819666e-05  1.6877695692292326e-05  1.6313178099656724e-05  1.5758180441411711e-05  1.5210228252704884e-05  1.4667041282409117e-05  1.4126429253263487e-05  1.3586198782842270e-05  1.3044076080515557e-05  1.2497654620359268e-05  1.1944384378077576e-05  1.1381622569473981e-05  1.0806762544003298e-05  1.0217446411310652e-05  9.6118490352413842e-06  8.9890002270171574e-06  8.3490950957806568e-06  7.6937367782373335e-06  7.0260651570785480e-06  6.3507478184808069e-06  5.6738380881135209e-06  5.0025303114420380e-06  4.3448576678861417e-06  3.7093806221569321e-06  3.1049069360987305e-06  2.5402717255966092e-06  2.0241939823802005e-06  1.5652151673442007e-06  1.1717274423249095e-06  8.5207668874788943e-07  6.1476442898821614e-07  4.6847112911356555e-07  4.2178637025161138e-07  4.8002730884538972e-07  6.4012351280896620e-07  8.6735201616090741e-07  1.1518364299529786e-06  1.1071560825430065e-06  5.8588305155252320e-07  -1.1519176013911748e-07  1.9964282022689928e-05  2.0839558665919388e-05  2.1311896151050814e-05  2.1148093286921978e-05  2.0550793072209163e-05  1.9892884488868078e-05  1.9226397874868423e-05  1.8580154894366676e-05  1.7961965005538379e-05  1.7368711968407255e-05  1.6794929333263721e-05  1.6235693830049197e-05  1.5687100410615353e-05  1.5146034685817968e-05  1.4609870648730193e-05  1.4076235134357836e-05  1.3542834036372877e-05  1.3007319226245101e-05  1.2467192043420094e-05  1.1919756399593572e-05  1.1362144518531606e-05  1.0791438574639437e-05  1.0204900175698497e-05  9.6002971082470248e-06  8.9762879286116613e-06  8.3327997987403563e-06  7.6713250983123467e-06  6.9950748151660523e-06  6.3089588465809148e-06  5.6194034145496107e-06  4.9340494610874276e-06  4.2613934291190142e-06  3.6104317598232719e-06  2.9903578509742120e-06  2.4103428910822294e-06  1.8794178907487657e-06  1.4064645791642858e-06  1.0003320235080396e-06  6.7007630438990553e-07  4.2537590325561562e-07  2.7678998078587729e-07  2.3570085497758958e-07  3.1057247631990120e-07  5.0064537393354982e-07  7.6821617847927553e-07  1.0946472760650323e-06  1.0216414601903568e-06  4.1675773183372697e-07  -4.6161563260471367e-07  1.9915964683167307e-05  2.0829068552751475e-05  2.1372553290424623e-05  2.1254439777258010e-05  2.0616576644583568e-05  1.9917722875411232e-05  1.9210910667099642e-05  1.8534878540082804e-05  1.7898361458691690e-05  1.7295888480333210e-05  1.6719269869308426e-05  1.6161366030217685e-05  1.5616697925975504e-05  1.5081117164432321e-05  1.4551349981891399e-05  1.4024629496450336e-05  1.3498418567207506e-05  1.2970192621706894e-05  1.2437269956580588e-05  1.1896701265043226e-05  1.1345248111892768e-05  1.0779486134783798e-05  1.0196057787279324e-05  9.5920692291409430e-06  8.9655819726618576e-06  8.3161080003734891e-06  7.6449984814356752e-06  6.9556348702682278e-06  6.2533826286522520e-06  5.5453304570393488e-06  4.8398864664028589e-06  4.1463225498484271e-06  3.4743503974139218e-06  2.8337885820561661e-06  2.2343534164075784e-06  1.6855876678314287e-06  1.1969317075077694e-06  7.7795352869778234e-07  4.3873161026888280e-07  1.9042193217925192e-07  4.5578871828825282e-08  1.7855430005744334e-08  1.1723920139204382e-07  3.4158588275677107e-07  6.4508757152530261e-07  9.9206919108329292e-07  8.8618437281053148e-07  2.0410352003627624e-07  -7.5746587498841760e-07  1.9976855534674398e-05  2.0908929389092247e-05  2.1485686067295865e-05  2.1385455109873516e-05  2.0719994538733637e-05  1.9985653460299339e-05  1.9237862151644078e-05  1.8527816416179765e-05  1.7866598164666834e-05  1.7248258604181219e-05  1.6662946566256994e-05  1.6101682255301435e-05  1.5557401807183422e-05  1.5024758413013833e-05  1.4499636067595444e-05  1.3978704036331350e-05  1.3459050447405648e-05  1.2937873955729565e-05  1.2412221900459127e-05  1.1878790684236830e-05  1.1333830922140330e-05  1.0773215025613319e-05  1.0192716320809214e-05  9.5885076180756969e-06  8.9578170758660719e-06  8.2996059628553969e-06  7.6150969114455678e-06  6.9080115556587082e-06  6.1844648545310723e-06  5.4525669418901270e-06  4.7218548336171351e-06  4.0026941956211632e-06  3.3057650923336579e-06  2.6417000319577015e-06  2.0209004945963712e-06  1.4535327340526025e-06  9.4969326346249969e-07  5.1974583605160306e-07  1.7480044701781314e-07  -7.2684019178492613e-08  -2.0871760143789572e-07  -2.1857062898310506e-07  -9.2674844717557811e-08  1.6325267962926645e-07  4.9455033016508791e-07  8.5252813626212820e-07  7.2580589545087796e-07  4.6648003417451155e-09  -9.8897376884092659e-07  2.0115255957241858e-05  2.1055892166349211e-05  2.1642932713939460e-05  2.1542272457591785e-05  2.0853449318605510e-05  2.0086453759976635e-05  1.9300307542096924e-05  1.8556097621147497e-05  1.7867433726534506e-05  1.7229274701537126e-05  1.6631098435314676e-05  1.6062662786759296e-05  1.5515565505759638e-05  1.4983305720905775e-05  1.4460870065219701e-05  1.3944278351591700e-05  1.3430163488406327e-05  1.2915383073143399e-05  1.2396657221785177e-05  1.1870256042752172e-05  1.1331798869984267e-05  1.0776258110684210e-05  1.0198260874742964e-05  9.5927276516985651e-06  8.9557737830496465e-06  8.2856671576738862e-06  7.5835636011431436e-06  6.8537934811906247e-06  6.1036330307673204e-06  5.3426714154120721e-06  4.5819882187948631e-06  3.8333576544092104e-06  3.1086290955363840e-06  2.4193504174050352e-06  1.7766371931103428e-06  1.1912595037127207e-06  6.7390980361392493e-07  2.3562824680085874e-07  -1.1167613980744186e-07  -3.5467701149278588e-07  -4.7868456129104346e-07  -4.6894508382983567e-07  -3.1741365030931514e-07  -3.3791259400263885e-08  3.2026494778235196e-07  6.8836412287932706e-07  5.5349538783799275e-07  -1.8317661634095541e-07  -1.1873976654675861e-06  2.0302926708099276e-05  2.1247107993690293e-05  2.1833701532536414e-05  2.1723474467324935e-05  2.1011100643905843e-05  2.0212947031264778e-05  1.9391726833582508e-05  1.8614877739446519e-05  1.7898412512597554e-05  1.7238777423025220e-05  1.6625379600141326e-05  1.6047228251818004e-05  1.5494907125598353e-05  1.4960918036574896e-05  1.4439395821094048e-05  1.3925701678560067e-05  1.3415989572958190e-05  1.2906759471871925e-05  1.2394395156127966e-05  1.1874715315984609e-05  1.1342623251944236e-05  1.0791998796078697e-05  1.0216002224001225e-05  9.6078984758496228e-06  8.9623264581338852e-06  8.2766926389526017e-06  7.5522182067525681e-06  6.7942624290612221e-06  6.0118489417659966e-06  5.2166357248826064e-06  4.4217105467584184e-06  3.6405399832450509e-06  2.8862506476355873e-06  2.1712792734163637e-06  1.5073426648276796e-06  9.0565027131088755e-07  3.7728564012757520e-07  -6.6295031565268264e-08  -4.1273634793579365e-07  -6.4833103780274502e-07  -7.5831331343023209e-07  -7.2855825519819298e-07  -5.5289436335712372e-07  -2.4448698530508820e-07  1.3007541146412883e-07  5.1010280347645910e-07  3.7611031024063191e-07  -3.6357227043386700e-07  -1.3695327145765627e-06  2.0518663728121010e-05  2.1464029582613055e-05  2.2045804995259680e-05  2.1922151889352408e-05  2.1185954775144940e-05  2.0358429888419290e-05  1.9505346685483459e-05  1.8698174606149143e-05  1.7955122951602140e-05  1.7274109587016027e-05  1.6644757800233018e-05  1.6055694648302080e-05  1.5496779517343343e-05  1.4959698993046416e-05  1.4437828044064637e-05  1.3925905588280488e-05  1.3419623522074607e-05  1.2915149119490801e-05  1.2408571397534559e-05  1.1895293280295784e-05  1.1369473076565071e-05  1.0823721327359318e-05  1.0249350108691197e-05  9.6374279696354038e-06  8.9806052060749883e-06  8.2752081800838770e-06  7.5227710848140520e-06  6.7303478015748514e-06  5.9095565729869244e-06  5.0748820575270374e-06  4.2419171326296969e-06  3.4260189313458106e-06  2.6415462230579012e-06  1.9016252302799071e-06  1.2182991929286694e-06  6.0291541574381636e-07  6.6636393546789954e-08  -3.7899740480640967e-07  -7.2155522398203718e-07  -9.4736666740189842e-07  -1.0420147768910733e-06  -9.9230745820611823e-07  -7.9388182924524248e-07  -4.6264625798763534e-07  -6.8588919263250009e-08  3.2502857848284644e-07  1.9708917756535151e-07  -5.3979581276120559e-07  -1.5442366047367499e-06  2.0746723646269759e-05  2.1692235113955924e-05  2.2267706534129571e-05  2.2129579748508933e-05  2.1370423269600356e-05  2.0515881118024865e-05  1.9634136018754520e-05  1.8799509536511851e-05  1.8032091741912820e-05  1.7331033597048328e-05  1.6686294180626198e-05  1.6086339629048472e-05  1.5520518553427059e-05  1.4979861708718329e-05  1.4457080603551700e-05  1.3946340176799949e-05  1.3442901304761935e-05  1.2942643978388370e-05  1.2441444246810176e-05  1.1934392814247368e-05  1.1414957217287596e-05  1.0874345299844349e-05  1.0301567203317109e-05  9.6847376619114540e-06  9.0137474236741946e-06  8.2835336930644140e-06  7.4963991645921953e-06  6.6621721453318654e-06  5.7963014485078014e-06  4.9170445941053017e-06  4.0429580457320917e-06  3.1912997407962912e-06  2.3773765314022466e-06  1.6145849033540476e-06  9.1485144202066015e-07  2.8924924440514098e-07  -2.5134952107568493e-07  -6.9565824861208731e-07  -1.0314923102463625e-06  -1.2455194809707240e-06  -1.3239092098439260e-06  -1.2544798113060620e-06  -1.0344506594832491e-06  -6.8184244538791367e-07  -2.6905390220778434e-07  1.3889843315604484e-07  1.9481190405552746e-08  -7.1211749908765815e-07  -1.7139204503814131e-06  2.0974744767206355e-05  2.1919989419861615e-05  2.2488971573351935e-05  2.2336863016799928e-05  2.1556607474638533e-05  2.0677892485622632e-05  1.9770863795036528e-05  1.8912068044430280e-05  1.8123132210120180e-05  1.7404205782315367e-05  1.6745616652878300e-05  1.6135786199990595e-05  1.5563698455460813e-05  1.5019853202801907e-05  1.4496379275665421e-05  1.3986905202577321e-05  1.3486280055558014e-05  1.2990130442308369e-05  1.2494214520270562e-05  1.1993474839396329e-05  1.1480861745807916e-05  1.0946149071863232e-05  1.0375534224123524e-05  9.7530876296934284e-06  9.0647063343550967e-06  8.3034703341066715e-06  7.4733064778875742e-06  6.5886144095878383e-06  5.6704666593955488e-06  4.7419814041146090e-06  3.8249283811772992e-06  2.9381169150488310e-06  2.0971725448133273e-06  1.3150908346948481e-06  6.0309262907964274e-07  -2.8493645662765535e-08  -5.6944979630021284e-07  -1.0090280863030350e-06  -1.3355185167084211e-06  -1.5361001225451561e-06  -1.5976169527956632e-06  -1.5088438218796152e-06  -1.2683172582731994e-06  -8.9568148083718905e-07  -4.6511425026707015e-07  -4.2970589279710806e-08  -1.5306126024729883e-07  -8.7854372650958068e-07  -1.8774281753753595e-06  2.1192488219644582e-05  2.2137361726445494e-05  2.2700314294354868e-05  2.2535549392994626e-05  2.1736680784692806e-05  2.0836984328469673e-05  1.9908242522700889e-05  1.9028815130835708e-05  1.8221571720323163e-05  1.7487482339369540e-05  1.6817232746516794e-05  1.6199261481795135e-05  1.5622293991804975e-05  1.5076399853825790e-05  1.4553192668502896e-05  1.4045788185508748e-05  1.3548615850697451e-05  1.3057036132421689e-05  1.2566751478692439e-05  1.2072738698911648e-05  1.1567760656578787e-05  1.1040334446941989e-05  1.0473379425707378e-05  9.8453317163853863e-06  9.1359949209880568e-06  8.3358533258084320e-06  7.4521275096547098e-06  6.5068359003375057e-06  5.5291831895323444e-06  4.5481421757408437e-06  3.5883909306711967e-06  2.6693391659605223e-06  1.8058686962684433e-06  1.0096754549306384e-06  2.9061732160309578e-07  -3.4216187613646894e-07  -8.7937859405986962e-07  -1.3110003391926715e-06  -1.6258989761669880e-06  -1.8118127220311636e-06  -1.8562341150211321e-06  -1.7487651097498355e-06  -1.4889979556579607e-06  -1.0978228438986764e-06  -6.5076430761500944e-07  -2.1525070364917270e-07  -3.1618696983213543e-07  -1.0355684509672087e-06  -2.0316061981115525e-06  2.1391242835511000e-05  2.2335792034286483e-05  2.2893512067582777e-05  2.2717856339026175e-05  2.1903194088585434e-05  2.0985894660772779e-05  2.0039102653350425e-05  1.9142668941917471e-05  1.8320473196618378e-05  1.7574171292950525e-05  1.6894782170512551e-05  1.6270806293607268e-05  1.5690801879356184e-05  1.5144506022478125e-05  1.4623091882474143e-05  1.4119192859204623e-05  1.3626792852070253e-05  1.3140911194157695e-05  1.2657164068350307e-05  1.2170657570289575e-05  1.1674450155870084e-05  1.1156325915897209e-05  1.0595855753824369e-05  9.9635167198585608e-06  9.2292541405572477e-06  8.3798324732844889e-06  7.4291279930071057e-06  6.4119340545386745e-06  5.3687541865043757e-06  4.3346592936160452e-06  3.3358017471408599e-06  2.3904067392926160e-06  1.5111501744234673e-06  7.0745055101614136e-07  -1.2762345636009299e-08  -6.4181180550715493e-07  -1.1714631351071856e-06  -1.5924225776610595e-06  -1.8941178136593537e-06  -2.0647825400453051e-06  -2.0924480342936384e-06  -1.9673714514897281e-06  -1.6899537464824527e-06  -1.2820264428879003e-06  -8.2013361919390455e-07  -3.7256394156564521e-07  -4.6509757727123435e-07  -1.1788511294343889e-06  -2.1722875044923632e-06  2.1563588443559247e-05  2.2507929577423774e-05  2.3061383070101276e-05  2.2876815398832655e-05  2.2049316728303990e-05  2.1117835630324713e-05  2.0156624353139428e-05  1.9246746277870458e-05  1.8412900239173323e-05  1.7657317548910815e-05  1.6971325949262519e-05  1.6343530104725950e-05  1.5762412419725686e-05  1.5217490587500564e-05  1.4699606134433760e-05  1.4200986187651132e-05  1.3715172161440396e-05  1.3236749512563323e-05  1.2761086448228323e-05  1.2283268420536770e-05  1.1797124633423987e-05  1.1290616768087298e-05  1.0741219531194954e-05  1.0108002776160492e-05  9.3442491702534311e-06  8.4316373443740352e-06  7.3973504479390572e-06  6.2973014953876843e-06  5.1863309671517332e-06  4.1037326242110001e-06  3.0739031391025587e-06  2.1112995692643133e-06  1.2248560063911604e-06  4.2098775950524079e-07  -2.9454217842513579e-07  -9.1551569754639008e-07  -1.4346349991263538e-06  -1.8432028344070183e-06  -2.1310580058296220e-06  -2.2867835860220350e-06  -2.2987895570931991e-06  -2.1577996674749107e-06  -1.8647963475294988e-06  -1.4422970150057916e-06  -9.6759767628294913e-07  -5.0965525339677031e-07  -5.9490044193190504e-07  -1.3037661466784894e-06  -2.2949476499982937e-06  2.1703337621204660e-05  2.2647611862360208e-05  2.3197835946874488e-05  2.3006417072812877e-05  2.2169054650167561e-05  2.1226749503793715e-05  2.0254615321467586e-05  1.9334668787364821e-05  1.8492255867538547e-05  1.7730081026216669e-05  1.7039753113813741e-05  1.6410016071728990e-05  1.5829364802724447e-05  1.5287225023029525e-05  1.4774257659621027e-05  1.4282434680469932e-05  1.3804959724202164e-05  1.3335995833099379e-05  1.2870454427388370e-05  1.2402984602083276e-05  1.1928173538371153e-05  1.1435053953299840e-05  1.0903187241214965e-05  1.0275004301391938e-05  9.4762853446080346e-06  8.4828973543264195e-06  7.3468370906011242e-06  6.1573186276261609e-06  4.9841769473279195e-06  3.8649096372775458e-06  2.8170372271643142e-06  1.8486420863699162e-06  9.6405402924235964e-07  1.6666988552227157e-07  -5.3961735906591342e-07  -1.1496895133722462e-06  -1.6568621947127258e-06  -2.0527709542876943e-06  -2.3274541886454031e-06  -2.4696648346144305e-06  -2.4680215244204100e-06  -2.3135358471711863e-06  -2.0075727626243600e-06  -1.5731200816761327e-06  -1.0879996308950260e-06  -6.2166005451614001e-07  -7.0097492759083676e-07  -1.4058627569580565e-06  -2.3952038945952146e-06  2.1805568551365613e-05  2.2749918825085734e-05  2.3297967878209868e-05  2.3101768759971776e-05  2.2257464450126864e-05  2.1307569744890939e-05  2.0327815804892746e-05  1.9400918133523260e-05  1.8552699894613807e-05  1.7786229654343863e-05  1.7093352951873153e-05  1.6462963791955287e-05  1.5883632201998411e-05  1.5344802365540248e-05  1.4837110618143665e-05  1.4352470210511546e-05  1.3883972020882154e-05  1.3425585128295069e-05  1.2971805530462801e-05  1.2516604932519377e-05  1.2054295646992175e-05  1.1574721877433594e-05  1.1066904086692286e-05  1.0449533025311119e-05  9.6104680940269537e-06  8.5209026760637892e-06  7.2699507629232665e-06  5.9955639039671133e-06  4.7778966381065410e-06  3.6409481630762063e-06  2.5902531748140742e-06  1.6267309155000515e-06  7.5082126793412640e-07  -3.6142056698938182e-08  -7.3133389975924850e-07  -1.3301495992816988e-06  -1.8261131215246283e-06  -2.2109171189747892e-06  -2.4746055103919762e-06  -2.6059498157587584e-06  -2.5936395101196481e-06  -2.4288302072936125e-06  -2.1131082836420338e-06  -1.6697542742693561e-06  -1.1769244486013962e-06  -7.0439935381583341e-07  -7.7931556768707388e-07  -1.4812505626332348e-06  -2.4692144149119216e-06  2.1866698228794576e-05  2.2811259975996733e-05  2.3358181611604260e-05  2.3159252690398926e-05  2.2310855910361515e-05  2.1356471726636537e-05  2.0372204044526444e-05  1.9441209742647904e-05  1.8589611906022560e-05  1.7820717595826194e-05  1.7126536551406259e-05  1.6496082727512157e-05  1.5918010591106773e-05  1.5381828988892669e-05  1.4878234013145806e-05  1.4399209090630398e-05  1.3937930147934006e-05  1.3488466228384597e-05  1.3045265771672969e-05  1.2602047586425068e-05  1.2151833216066532e-05  1.1684445323924253e-05  1.1202361374390534e-05  1.0593098649712654e-05  9.7159492318007002e-06  8.5395756196577373e-06  7.1791730760858188e-06  5.8415622884140895e-06  4.6069611897586212e-06  3.4716943858784863e-06  2.4289290133988304e-06  1.4752353512399194e-06  6.0942988948629680e-07  -1.6777372546904003e-07  -8.5376321653017037e-07  -1.4439579659355334e-06  -1.9318162570317899e-06  -2.3089344786363199e-06  -2.5652689877947355e-06  -2.6895379676862716e-06  -2.6704259843181931e-06  -2.4991386762116249e-06  -2.1773644253155398e-06  -1.7285337252758023e-06  -1.2309751422519978e-06  -7.5465776155061984e-07  -8.2682869223022924e-07  -1.5269122989938213e-06  -2.5139941324109248e-06  2.1884560087286414e-05  2.2829461714469935e-05  2.3376293109500970e-05  2.3176661629286507e-05  2.2326961782505013e-05  2.1371084941610229e-05  2.0385262240694944e-05  1.9452830444001423e-05  1.8600026960484224e-05  1.7830255523980962e-05  1.7135591030192599e-05  1.6505097205823759e-05  1.5927464881925945e-05  1.5392232873243879e-05  1.4890126929883301e-05  1.4413167633587156e-05  1.3954584420622502e-05  1.3508525478006303e-05  1.3069482225342585e-05  1.2631299375531804e-05  1.2186355442061178e-05  1.1725376926185365e-05  1.1256760361884728e-05  1.0657069112920055e-05  9.7579147916399793e-06  8.5509465568688437e-06  7.1402318126986747e-06  5.7676400256074102e-06  4.5353266663625220e-06  3.4063538697910927e-06  2.3696536574900537e-06  1.4213029733128693e-06  5.6023570822079575e-07  -2.1274859231173245e-07  -8.9496709218801713e-07  -1.4817725710835044e-06  -1.9665569946399906e-06  -2.3408545311481582e-06  -2.5945698039949719e-06  -2.716