<?xml version="1.0"?>
<VTKFile type="UnstructuredGrid"  version="0.1"  >
<UnstructuredGrid>
<Piece  NumberOfPoints="1617" NumberOfCells="3072">
<Points>
<DataArray  type="Float64"  NumberOfComponents="3"  format="ascii">0 0 0  0.03125 0 0  0.0625 0 0  0.09375 0 0  0.125 0 0  0.15625 0 0  0.1875 0 0  0.21875 0 0  0.25 0 0  0.28125 0 0  0.3125 0 0  0.34375 0 0  0.375 0 0  0.40625 0 0  0.4375 0 0  0.46875 0 0  0.5 0 0  0.53125 0 0  0.5625 0 0  0.59375 0 0  0.625 0 0  0.65625 0 0  0.6875 0 0  0.71875 0 0  0.75 0 0  0.78125 0 0  0.8125 0 0  0.84375 0 0  0.875 0 0  0.90625 0 0  0.9375 0 0  0.96875 0 0  1 0 0  1.03125 0 0  1.0625 0 0  1.09375 0 0  1.125 0 0  1.15625 0 0  1.1875 0 0  1.21875 0 0  1.25 0 0  1.28125 0 0  1.3125 0 0  1.34375 0 0  1.375 0 0  1.40625 0 0  1.4375 0 0  1.46875 0 0  1.5 0 0  0 0.03125 0  0.03125 0.03125 0  0.0625 0.03125 0  0.09375 0.03125 0  0.125 0.03125 0  0.15625 0.03125 0  0.1875 0.03125 0  0.21875 0.03125 0  0.25 0.03125 0  0.28125 0.03125 0  0.3125 0.03125 0  0.34375 0.03125 0  0.375 0.03125 0  0.40625 0.03125 0  0.4375 0.03125 0  0.46875 0.03125 0  0.5 0.03125 0  0.53125 0.03125 0  0.5625 0.03125 0  0.59375 0.03125 0  0.625 0.03125 0  0.65625 0.03125 0  0.6875 0.03125 0  0.71875 0.03125 0  0.75 0.03125 0  0.78125 0.03125 0  0.8125 0.03125 0  0.84375 0.03125 0  0.875 0.03125 0  0.90625 0.03125 0  0.9375 0.03125 0  0.96875 0.03125 0  1 0.03125 0  1.03125 0.03125 0  1.0625 0.03125 0  1.09375 0.03125 0  1.125 0.03125 0  1.15625 0.03125 0  1.1875 0.03125 0  1.21875 0.03125 0  1.25 0.03125 0  1.28125 0.03125 0  1.3125 0.03125 0  1.34375 0.03125 0  1.375 0.03125 0  1.40625 0.03125 0  1.4375 0.03125 0  1.46875 0.03125 0  1.5 0.03125 0  0 0.0625 0  0.03125 0.0625 0  0.0625 0.0625 0  0.09375 0.0625 0  0.125 0.0625 0  0.15625 0.0625 0  0.1875 0.0625 0  0.21875 0.0625 0  0.25 0.0625 0  0.28125 0.0625 0  0.3125 0.0625 0  0.34375 0.0625 0  0.375 0.0625 0  0.40625 0.0625 0  0.4375 0.0625 0  0.46875 0.0625 0  0.5 0.0625 0  0.53125 0.0625 0  0.5625 0.0625 0  0.59375 0.0625 0  0.625 0.0625 0  0.65625 0.0625 0  0.6875 0.0625 0  0.71875 0.0625 0  0.75 0.0625 0  0.78125 0.0625 0  0.8125 0.0625 0  0.84375 0.0625 0  0.875 0.0625 0  0.90625 0.0625 0  0.9375 0.0625 0  0.96875 0.0625 0  1 0.0625 0  1.03125 0.0625 0  1.0625 0.0625 0  1.09375 0.0625 0  1.125 0.0625 0  1.15625 0.0625 0  1.1875 0.0625 0  1.21875 0.0625 0  1.25 0.0625 0  1.28125 0.0625 0  1.3125 0.0625 0  1.34375 0.0625 0  1.375 0.0625 0  1.40625 0.0625 0  1.4375 0.0625 0  1.46875 0.0625 0  1.5 0.0625 0  0 0.09375 0  0.03125 0.09375 0  0.0625 0.09375 0  0.09375 0.09375 0  0.125 0.09375 0  0.15625 0.09375 0  0.1875 0.09375 0  0.21875 0.09375 0  0.25 0.09375 0  0.28125 0.09375 0  0.3125 0.09375 0  0.34375 0.09375 0  0.375 0.09375 0  0.40625 0.09375 0  0.4375 0.09375 0  0.46875 0.09375 0  0.5 0.09375 0  0.53125 0.09375 0  0.5625 0.09375 0  0.59375 0.09375 0  0.625 0.09375 0  0.65625 0.09375 0  0.6875 0.09375 0  0.71875 0.09375 0  0.75 0.09375 0  0.78125 0.09375 0  0.8125 0.09375 0  0.84375 0.09375 0  0.875 0.09375 0  0.90625 0.09375 0  0.9375 0.09375 0  0.96875 0.09375 0  1 0.09375 0  1.03125 0.09375 0  1.0625 0.09375 0  1.09375 0.09375 0  1.125 0.09375 0  1.15625 0.09375 0  1.1875 0.09375 0  1.21875 0.09375 0  1.25 0.09375 0  1.28125 0.09375 0  1.3125 0.09375 0  1.34375 0.09375 0  1.375 0.09375 0  1.40625 0.09375 0  1.4375 0.09375 0  1.46875 0.09375 0  1.5 0.09375 0  0 0.125 0  0.03125 0.125 0  0.0625 0.125 0  0.09375 0.125 0  0.125 0.125 0  0.15625 0.125 0  0.1875 0.125 0  0.21875 0.125 0  0.25 0.125 0  0.28125 0.125 0  0.3125 0.125 0  0.34375 0.125 0  0.375 0.125 0  0.40625 0.125 0  0.4375 0.125 0  0.46875 0.125 0  0.5 0.125 0  0.53125 0.125 0  0.5625 0.125 0  0.59375 0.125 0  0.625 0.125 0  0.65625 0.125 0  0.6875 0.125 0  0.71875 0.125 0  0.75 0.125 0  0.78125 0.125 0  0.8125 0.125 0  0.84375 0.125 0  0.875 0.125 0  0.90625 0.125 0  0.9375 0.125 0  0.96875 0.125 0  1 0.125 0  1.03125 0.125 0  1.0625 0.125 0  1.09375 0.125 0  1.125 0.125 0  1.15625 0.125 0  1.1875 0.125 0  1.21875 0.125 0  1.25 0.125 0  1.28125 0.125 0  1.3125 0.125 0  1.34375 0.125 0  1.375 0.125 0  1.40625 0.125 0  1.4375 0.125 0  1.46875 0.125 0  1.5 0.125 0  0 0.15625 0  0.03125 0.15625 0  0.0625 0.15625 0  0.09375 0.15625 0  0.125 0.15625 0  0.15625 0.15625 0  0.1875 0.15625 0  0.21875 0.15625 0  0.25 0.15625 0  0.28125 0.15625 0  0.3125 0.15625 0  0.34375 0.15625 0  0.375 0.15625 0  0.40625 0.15625 0  0.4375 0.15625 0  0.46875 0.15625 0  0.5 0.15625 0  0.53125 0.15625 0  0.5625 0.15625 0  0.59375 0.15625 0  0.625 0.15625 0  0.65625 0.15625 0  0.6875 0.15625 0  0.71875 0.15625 0  0.75 0.15625 0  0.78125 0.15625 0  0.8125 0.15625 0  0.84375 0.15625 0  0.875 0.15625 0  0.90625 0.15625 0  0.9375 0.15625 0  0.96875 0.15625 0  1 0.15625 0  1.03125 0.15625 0  1.0625 0.15625 0  1.09375 0.15625 0  1.125 0.15625 0  1.15625 0.15625 0  1.1875 0.15625 0  1.21875 0.15625 0  1.25 0.15625 0  1.28125 0.15625 0  1.3125 0.15625 0  1.34375 0.15625 0  1.375 0.15625 0  1.40625 0.15625 0  1.4375 0.15625 0  1.46875 0.15625 0  1.5 0.15625 0  0 0.1875 0  0.03125 0.1875 0  0.0625 0.1875 0  0.09375 0.1875 0  0.125 0.1875 0  0.15625 0.1875 0  0.1875 0.1875 0  0.21875 0.1875 0  0.25 0.1875 0  0.28125 0.1875 0  0.3125 0.1875 0  0.34375 0.1875 0  0.375 0.1875 0  0.40625 0.1875 0  0.4375 0.1875 0  0.46875 0.1875 0  0.5 0.1875 0  0.53125 0.1875 0  0.5625 0.1875 0  0.59375 0.1875 0  0.625 0.1875 0  0.65625 0.1875 0  0.6875 0.1875 0  0.71875 0.1875 0  0.75 0.1875 0  0.78125 0.1875 0  0.8125 0.1875 0  0.84375 0.1875 0  0.875 0.1875 0  0.90625 0.1875 0  0.9375 0.1875 0  0.96875 0.1875 0  1 0.1875 0  1.03125 0.1875 0  1.0625 0.1875 0  1.09375 0.1875 0  1.125 0.1875 0  1.15625 0.1875 0  1.1875 0.1875 0  1.21875 0.1875 0  1.25 0.1875 0  1.28125 0.1875 0  1.3125 0.1875 0  1.34375 0.1875 0  1.375 0.1875 0  1.40625 0.1875 0  1.4375 0.1875 0  1.46875 0.1875 0  1.5 0.1875 0  0 0.21875 0  0.03125 0.21875 0  0.0625 0.21875 0  0.09375 0.21875 0  0.125 0.21875 0  0.15625 0.21875 0  0.1875 0.21875 0  0.21875 0.21875 0  0.25 0.21875 0  0.28125 0.21875 0  0.3125 0.21875 0  0.34375 0.21875 0  0.375 0.21875 0  0.40625 0.21875 0  0.4375 0.21875 0  0.46875 0.21875 0  0.5 0.21875 0  0.53125 0.21875 0  0.5625 0.21875 0  0.59375 0.21875 0  0.625 0.21875 0  0.65625 0.21875 0  0.6875 0.21875 0  0.71875 0.21875 0  0.75 0.21875 0  0.78125 0.21875 0  0.8125 0.21875 0  0.84375 0.21875 0  0.875 0.21875 0  0.90625 0.21875 0  0.9375 0.21875 0  0.96875 0.21875 0  1 0.21875 0  1.03125 0.21875 0  1.0625 0.21875 0  1.09375 0.21875 0  1.125 0.21875 0  1.15625 0.21875 0  1.1875 0.21875 0  1.21875 0.21875 0  1.25 0.21875 0  1.28125 0.21875 0  1.3125 0.21875 0  1.34375 0.21875 0  1.375 0.21875 0  1.40625 0.21875 0  1.4375 0.21875 0  1.46875 0.21875 0  1.5 0.21875 0  0 0.25 0  0.03125 0.25 0  0.0625 0.25 0  0.09375 0.25 0  0.125 0.25 0  0.15625 0.25 0  0.1875 0.25 0  0.21875 0.25 0  0.25 0.25 0  0.28125 0.25 0  0.3125 0.25 0  0.34375 0.25 0  0.375 0.25 0  0.40625 0.25 0  0.4375 0.25 0  0.46875 0.25 0  0.5 0.25 0  0.53125 0.25 0  0.5625 0.25 0  0.59375 0.25 0  0.625 0.25 0  0.65625 0.25 0  0.6875 0.25 0  0.71875 0.25 0  0.75 0.25 0  0.78125 0.25 0  0.8125 0.25 0  0.84375 0.25 0  0.875 0.25 0  0.90625 0.25 0  0.9375 0.25 0  0.96875 0.25 0  1 0.25 0  1.03125 0.25 0  1.0625 0.25 0  1.09375 0.25 0  1.125 0.25 0  1.15625 0.25 0  1.1875 0.25 0  1.21875 0.25 0  1.25 0.25 0  1.28125 0.25 0  1.3125 0.25 0  1.34375 0.25 0  1.375 0.25 0  1.40625 0.25 0  1.4375 0.25 0  1.46875 0.25 0  1.5 0.25 0  0 0.28125 0  0.03125 0.28125 0  0.0625 0.28125 0  0.09375 0.28125 0  0.125 0.28125 0  0.15625 0.28125 0  0.1875 0.28125 0  0.21875 0.28125 0  0.25 0.28125 0  0.28125 0.28125 0  0.3125 0.28125 0  0.34375 0.28125 0  0.375 0.28125 0  0.40625 0.28125 0  0.4375 0.28125 0  0.46875 0.28125 0  0.5 0.28125 0  0.53125 0.28125 0  0.5625 0.28125 0  0.59375 0.28125 0  0.625 0.28125 0  0.65625 0.28125 0  0.6875 0.28125 0  0.71875 0.28125 0  0.75 0.28125 0  0.78125 0.28125 0  0.8125 0.28125 0  0.84375 0.28125 0  0.875 0.28125 0  0.90625 0.28125 0  0.9375 0.28125 0  0.96875 0.28125 0  1 0.28125 0  1.03125 0.28125 0  1.0625 0.28125 0  1.09375 0.28125 0  1.125 0.28125 0  1.15625 0.28125 0  1.1875 0.28125 0  1.21875 0.28125 0  1.25 0.28125 0  1.28125 0.28125 0  1.3125 0.28125 0  1.34375 0.28125 0  1.375 0.28125 0  1.40625 0.28125 0  1.4375 0.28125 0  1.46875 0.28125 0  1.5 0.28125 0  0 0.3125 0  0.03125 0.3125 0  0.0625 0.3125 0  0.09375 0.3125 0  0.125 0.3125 0  0.15625 0.3125 0  0.1875 0.3125 0  0.21875 0.3125 0  0.25 0.3125 0  0.28125 0.3125 0  0.3125 0.3125 0  0.34375 0.3125 0  0.375 0.3125 0  0.40625 0.3125 0  0.4375 0.3125 0  0.46875 0.3125 0  0.5 0.3125 0  0.53125 0.3125 0  0.5625 0.3125 0  0.59375 0.3125 0  0.625 0.3125 0  0.65625 0.3125 0  0.6875 0.3125 0  0.71875 0.3125 0  0.75 0.3125 0  0.78125 0.3125 0  0.8125 0.3125 0  0.84375 0.3125 0  0.875 0.3125 0  0.90625 0.3125 0  0.9375 0.3125 0  0.96875 0.3125 0  1 0.3125 0  1.03125 0.3125 0  1.0625 0.3125 0  1.09375 0.3125 0  1.125 0.3125 0  1.15625 0.3125 0  1.1875 0.3125 0  1.21875 0.3125 0  1.25 0.3125 0  1.28125 0.3125 0  1.3125 0.3125 0  1.34375 0.3125 0  1.375 0.3125 0  1.40625 0.3125 0  1.4375 0.3125 0  1.46875 0.3125 0  1.5 0.3125 0  0 0.34375 0  0.03125 0.34375 0  0.0625 0.34375 0  0.09375 0.34375 0  0.125 0.34375 0  0.15625 0.34375 0  0.1875 0.34375 0  0.21875 0.34375 0  0.25 0.34375 0  0.28125 0.34375 0  0.3125 0.34375 0  0.34375 0.34375 0  0.375 0.34375 0  0.40625 0.34375 0  0.4375 0.34375 0  0.46875 0.34375 0  0.5 0.34375 0  0.53125 0.34375 0  0.5625 0.34375 0  0.59375 0.34375 0  0.625 0.34375 0  0.65625 0.34375 0  0.6875 0.34375 0  0.71875 0.34375 0  0.75 0.34375 0  0.78125 0.34375 0  0.8125 0.34375 0  0.84375 0.34375 0  0.875 0.34375 0  0.90625 0.34375 0  0.9375 0.34375 0  0.96875 0.34375 0  1 0.34375 0  1.03125 0.34375 0  1.0625 0.34375 0  1.09375 0.34375 0  1.125 0.34375 0  1.15625 0.34375 0  1.1875 0.34375 0  1.21875 0.34375 0  1.25 0.34375 0  1.28125 0.34375 0  1.3125 0.34375 0  1.34375 0.34375 0  1.375 0.34375 0  1
[...]
<PointData  Scalars="f_33"> 
<DataArray  type="Float64"  Name="f_33"  format="ascii">2.0339516206727364e-05  1.8891245798128710e-05  1.6456423662063988e-05  1.3958710302727573e-05  1.1570628449313178e-05  9.3203740674329217e-06  7.2171193044168677e-06  5.2627361997572552e-06  3.4548850429787604e-06  1.7891010309974585e-06  2.5992382934672424e-07  -1.1384696280493966e-06  -2.4119233795424127e-06  -3.5661247816024908e-06  -4.6065119465401645e-06  -5.5382203955396262e-06  -6.3660457098367824e-06  -7.0944118242869789e-06  -7.7273405816205764e-06  -8.2684203391356799e-06  -8.7207721226990816e-06  -9.0870124001646552e-06  -9.3692125817463629e-06  -9.5688568925521036e-06  -9.6868019479484657e-06  -9.7232426096283759e-06  -9.6776889475489387e-06  -9.5489581363447603e-06  -9.3351830876511949e-06  -9.0338371725144272e-06  -8.6417722104690654e-06  -8.1552655784767897e-06  -7.5700718974039769e-06  -6.8814753298275045e-06  -6.0843391791566040e-06  -5.1731510305929081e-06  -4.1420613896772758e-06  -2.9849192906412771e-06  -1.6953052002921098e-06  -2.6659084006675841e-07  1.3079574481617585e-06  3.0350078107979634e-06  4.9205590533131713e-06  6.9710402762692292e-06  9.1872581608396925e-06  1.1581860219025846e-05  1.4183564946129818e-05  1.6844775324962039e-05  1.7869779158227989e-05  2.0711853604520061e-05  1.9183102643798283e-05  1.6486058392413847e-05  1.3888916347168094e-05  1.1473103500098405e-05  9.2165624881852167e-06  7.1130023027618795e-06  5.1609324346434110e-06  3.3566787693861165e-06  1.6951635221088030e-06  1.7056779611791818e-07  -1.2231657251848758e-06  -2.4920369731984545e-06  -3.6418351211079656e-06  -4.6780642275267241e-06  -5.6059033195372991e-06  -6.4301781785621903e-06  -7.1553355217168799e-06  -7.7854163542820830e-06  -8.3240270816304802e-06  -8.7743072323873659e-06  -9.1388929103625815e-06  -9.4198760150490061e-06  -9.6187608889995087e-06  -9.7364219489422607e-06  -9.7730673325843487e-06  -9.7282139482908657e-06  -9.6006782269195955e-06  -9.3885845842168313e-06  -9.0893908274621230e-06  -8.6999272998484419e-06  -8.2164450963758708e-06  -7.6346682873602835e-06  -6.9498456593771030e-06  -6.1567981593793385e-06  -5.2499594196043300e-06  -4.2234066101771952e-06  -3.0708830826695151e-06  -1.7858138772092249e-06  -3.6133940543945334e-07  1.2096145396356827e-06  2.9342156228740896e-06  4.8193264573553171e-06  6.8727438691847939e-06  9.0992654780111789e-06  1.1523213540508467e-05  1.4194347068715002e-05  1.7053847535621119e-05  1.8441693053635885e-05  2.1433656069205283e-05  1.9744551133642473e-05  1.6692185752709643e-05  1.3895168697460997e-05  1.1381571438681376e-05  9.0780734192814036e-06  6.9497702656206744e-06  4.9853840724319770e-06  3.1760450641064193e-06  1.5139592746993685e-06  -8.3220253455396244e-09  -1.3979302072872282e-06  -2.6616020804384378e-06  -3.8056380283494031e-06  -4.8358986304593121e-06  -5.7578143510250936e-06  -6.5763922830457138e-06  -7.2962147027612394e-06  -7.9214294074629744e-06  -8.4557326676688420e-06  -8.9023448416974476e-06  -9.2639781364523741e-06  -9.5427965601845606e-06  -9.7403699274020669e-06  -9.8576262994701974e-06  -9.8948094130137074e-06  -9.8514483130190367e-06  -9.7263449744230187e-06  -9.5175824936145021e-06  -9.2225525616646547e-06  -8.8379976326127782e-06  -8.3600613570320629e-06  -7.7843404696252360e-06  -7.1059320637583325e-06  -6.3194708029419921e-06  -5.4191514536596012e-06  -4.3987310694555698e-06  -3.2515088157103028e-06  -1.9702785703040099e-06  -5.4727314873310049e-07  1.0259121266333273e-06  2.7584568279134142e-06  4.6604969757112055e-06  6.7457923239476580e-06  9.0302776246964118e-06  1.1563865086778218e-05  1.4426201150534967e-05  1.7560565997162514e-05  1.9159769267141751e-05  2.2280557035361173e-05  2.0455491085789807e-05  1.7090814418960189e-05  1.4044265254035828e-05  1.1368132727913204e-05  8.9666274186612964e-06  6.7780300443280807e-06  4.7774847838804246e-06  2.9472284577635398e-06  1.2742887314136948e-06  -2.5208242062863721e-07  -1.6412395831871364e-06  -2.9014656413756501e-06  -4.0401565807682533e-06  -5.0639581841339084e-06  -5.9788697295779791e-06  -6.7903163047667925e-06  -7.5031940752030908e-06  -8.1218944138240666e-06  -8.6503114453599601e-06  -9.0918349500552061e-06  -9.4493286233739528e-06  -9.7250936243056256e-06  -9.9208195237888525e-06  -1.0037528519083789e-05  -1.0075522371141183e-05  -1.0034342838453498e-05  -9.9127542237187386e-06  -9.7087515538235414e-06  -9.4195918434440542e-06  -9.0418410072177414e-06  -8.5714266135255048e-06  -8.0036866112941228e-06  -7.3334054888303773e-06  -6.5548301623961305e-06  -5.6616583274151093e-06  -4.6469897782470911e-06  -3.5032331461665787e-06  -2.2219539268517149e-06  -7.9366633429508148e-07  7.9248115459029775e-07  2.5492441880753545e-06  4.4921628064917940e-06  6.6434821574959128e-06  9.0318655429367096e-06  1.1725055727392033e-05  1.4810212854643540e-05  1.8196159779559602e-05  1.9947433995563446e-05  2.3137450838920184e-05  2.1220701610313559e-05  1.7616204384134720e-05  1.4329157908516945e-05  1.1462974158726982e-05  8.9270040833903347e-06  6.6458167534106247e-06  4.5834608986229407e-06  2.7128662736499392e-06  1.0147923693460584e-06  -5.2594173031308274e-07  -1.9218591796582086e-06  -3.1835354764753575e-06  -4.3200462442741657e-06  -5.3392773569198332e-06  -6.2481501527274880e-06  -7.0527812533478342e-06  -7.7585924245612434e-06  -8.3703833714467907e-06  -8.8923763416196201e-06  -9.3282364490232530e-06  -9.6810677668691216e-06  -9.9533842306599598e-06  -1.0147057203472769e-05  -1.0263247592778609e-05  -1.0302336785324591e-05  -1.0263873347148867e-05  -1.0146548944569645e-05  -9.9482082716612565e-06  -9.6658877356509789e-06  -9.2958702831819216e-06  -8.8337410836529250e-06  -8.2744299697643021e-06  -7.6122294070228997e-06  -6.8407784260985625e-06  -5.9530032044908333e-06  -4.9410016117873254e-06  -3.7958592740327478e-06  -2.5073751103454751e-06  -1.0636869377556559e-06  5.4927372117734651e-07  2.3486364796621067e-06  4.3558584415352651e-06  6.6009547457801204e-06  9.1213128963945441e-06  1.1991281016506768e-05  1.5289521030235960e-05  1.8884992043235287e-05  2.0745683083397536e-05  2.3962373183670088e-05  2.1982100072992459e-05  1.8198002315234678e-05  1.4703356836867019e-05  1.1650205973722757e-05  8.9649372383813555e-06  6.5710295628482854e-06  4.4269765802157320e-06  2.4987801503706624e-06  7.6149073728334861e-07  -8.0468461996018925e-07  -2.2158454212921683e-06  -3.4853124291206857e-06  -4.6242658964506282e-06  -5.6422025335788324e-06  -6.5472770826445290e-06  -7.3465527368492053e-06  -8.0461822765076427e-06  -8.6515378715191346e-06  -9.1673018514322624e-06  -9.5975234634942709e-06  -9.9456403310829474e-06  -1.0214460781622818e-05  -1.0406106885634465e-05  -1.0521928217312581e-05  -1.0562408222395764e-05  -1.0527090733726321e-05  -1.0414548313693966e-05  -1.0222398685368246e-05  -9.9473584023065255e-06  -9.5853119681783739e-06  -9.1313728094047287e-06  -8.5799170622856247e-06  -7.9245772924356372e-06  -7.1581866079547922e-06  -6.2726639842996395e-06  -5.2588274336681822e-06  -4.1061212894509010e-06  -2.8022342201650021e-06  -1.3326005228538456e-06  3.2027646253212313e-07  2.1777762923122474e-06  4.2663634187647068e-06  6.6213113010203854e-06  9.2835741343444967e-06  1.2325892402583523e-05  1.5811471654853067e-05  1.9573202593369385e-05  2.1511086808858148e-05  2.4735318704595497e-05  2.2709208806717880e-05  1.8789439979838210e-05  1.5123750688612872e-05  1.1901317563032680e-05  9.0682945186591253e-06  6.5541554694664653e-06  4.3169164900613138e-06  2.3189462428436827e-06  5.3114679463094045e-07  -1.0702478402055027e-06  -2.5047558420335881e-06  -3.7885269312915816e-06  -4.9350330477603013e-06  -5.9556006050578716e-06  -6.8598329436909999e-06  -7.6559341084919427e-06  -8.3509544728268060e-06  -8.9509771073424491e-06  -9.4612587032370855e-06  -9.8863296678978454e-06  -1.0230048590434894e-05  -1.0495600652735988e-05  -1.0685433679501206e-05  -1.0801142918990794e-05  -1.0843338422050663e-05  -1.0811541234386751e-05  -1.0704144502888103e-05  -1.0518446935546718e-05  -1.0250735964572473e-05  -9.8963824467292520e-06  -9.4499112231664349e-06  -8.9050241418699135e-06  -8.2545641736095724e-06  -7.4904148713968076e-06  -6.6033296416176431e-06  -5.5826804170480356e-06  -4.4161156204146305e-06  -3.0891108062421898e-06  -1.5844204342697934e-06  1.1859722122777732e-07  2.0448063540717397e-06  4.2240965488470538e-06  6.6942065833677411e-06  9.4955732728303242e-06  1.2694845077213232e-05  1.6338514091295492e-05  2.0230601722979827e-05  2.2224175109176165e-05  2.5446089668766654e-05  2.3385683008990884e-05  1.9361746978282072e-05  1.5557266556629539e-05  1.2188072189602795e-05  9.2182693468776692e-06  6.5859572205304895e-06  4.2519953357446815e-06  2.1779542697059454e-06  3.3238401290875794e-07  -1.3113923989530942e-06  -2.7757656618346430e-06  -4.0794879334740376e-06  -5.2382776347994859e-06  -6.2653426895635456e-06  -7.1718323078502687e-06  -7.9672029244141988e-06  -8.6595104542738575e-06  -9.2556443646417718e-06  -9.7615172751765722e-06  -1.0182213065945246e-05  -1.0522083308590029e-05  -1.0784768929644104e-05  -1.0973125995059165e-05  -1.1089063832466876e-05  -1.1133348064713556e-05  -1.1105449345141240e-05  -1.1003500596597791e-05  -1.0824369244389498e-05  -1.0563796089916170e-05  -1.0216532963792248e-05  -9.7764272451942295e-06  -9.2364295227010955e-06  -8.5885213351793448e-06  -7.8235667685497910e-06  -6.9310899825722909e-06  -5.8989744428085785e-06  -4.7130812567235444e-06  -3.3567825036515436e-06  -1.8104417157559927e-06  -5.0854770431299701e-08  1.9493006538239147e-06  4.2217177825056838e-06  6.8043434794719711e-06  9.7345847052894234e-06  1.3071296903357457e-05  1.6845795787092173e-05  2.0840264634527437e-05  2.2875266276986612e-05  2.6089015986282387e-05  2.4002264267771486e-05  1.9897161355695694e-05  1.5980580290272190e-05  1.2487233077620901e-05  9.3959350599804359e-06  6.6535876126144492e-06  4.2255210740076034e-06  2.0744088265639304e-06  1.6799034091465331e-07  -1.5222093851999663e-06  -3.0207418864589375e-06  -4.3485442993275483e-06  -5.5233629467957336e-06  -6.5601966502750060e-06  -7.4717263119355939e-06  -8.2686874654192515e-06  -8.9601851561105269e-06  -9.5539604542423626e-06  -1.0056622025734290e-05  -1.0473844576546941e-05  -1.0810520086689622e-05  -1.1070816855766583e-05  -1.1258093916708991e-05  -1.1374664206298125e-05  -1.1421486699119183e-05  -1.1397936875621849e-05  -1.1301771185567724e-05  -1.1129282580437905e-05  -1.0875540603892101e-05  -1.0534594419628598e-05  -1.0099569785053584e-05  -9.5626485944631606e-06  -8.9149487408443531e-06  -8.1463245228319092e-06  -7.2450998389666492e-06  -6.1977371129670795e-06  -4.9884480112240294e-06  -3.5987559650287322e-06  -2.0070669119076777e-06  -1.8829835236716836e-07  1.8863314683390515e-06  4.2489999354387256e-06  6.9363677602282857e-06  9.9816265994802100e-06  1.3435789681495463e-05  1.7317486054238006e-05  2.1392817882794993e-05  2.3459473077588957e-05  2.6660755043766393e-05  2.4553450394219686e-05  2.0384478396783308e-05  1.6377588610371170e-05  1.2780918249533078e-05  9.5847561371419743e-06  6.7438889734160453e-06  4.2285544020568359e-06  2.0035601291598168e-06  3.6932128249783760e-08  -1.7006638576667667e-06  -3.2352372473951088e-06  -4.5894217857136975e-06  -5.7826754513566573e-06  -6.8315987081232610e-06  -7.7503021739111494e-06  -8.5507544407248241e-06  -9.2430947984723789e-06  -9.8359131897305901e-06  -1.0336511362751877e-05  -1.0751149790492399e-05  -1.1085273663440865e-05  -1.1343637883481887e-05  -1.1530221153056844e-05  -1.1647871527891996e-05  -1.1697796619122958e-05  -1.1679197227456092e-05  -1.1589271334784739e-05  -1.1423545509987629e-05  -1.1176291553228689e-05  -1.0840813931779600e-05  -1.0409538153845068e-05  -9.8739327847109003e-06  -9.2243227712675807e-06  -8.4496353698418798e-06  -7.5370990586532801e-06  -6.4719026390302380e-06  -5.2368271955372578e-06  -3.8118730876957789e-06  -2.1739583149628808e-06  -2.9676476527667213e-07  1.8491348352983251e-06  4.2954914706486692e-06  7.0768751749190086e-06  1.0221982605053693e-05  1.3774753688599768e-05  1.7743678863479594e-05  2.1883152576512331e-05  2.3974445548228257e-05  2.7159240119127353e-05  2.5035822183758731e-05  2.0816454591112622e-05  1.6737186462750120e-05  1.3055778508304747e-05  9.7712432406331426e-06  6.8449647972941794e-06  4.2518345853885494e-06  1.9591865553127841e-06  -6.4014311457509252e-08  -1.8472802875405962e-06  -3.4174850780906700e-06  -4.7984888059626426e-06  -6.0111135896384680e-06  -7.0733186571336787e-06  -8.0004835693017376e-06  -8.8057096308057094e-06  -9.5001099680640065e-06  -1.0093083151264763e-05  -1.0592584310423471e-05  -1.1005408660594826e-05  -1.1337520368205831e-05  -1.1594293760943235e-05  -1.1780481734405988e-05  -1.1899685688492470e-05  -1.1953450516317239e-05  -1.1940647303109054e-05  -1.1857609860129460e-05  -1.1698836359133366e-05  -1.1457695091340930e-05  -1.1126782789280085e-05  -1.0697938104958680e-05  -1.0162052329218636e-05  -9.5087935453741320e-06  -8.7262996206820831e-06  -7.8008577000895843e-06  -6.7165744720226352e-06  -5.4550524581331330e-06  -3.9951031619259468e-06  -2.3125874652010376e-06  -3.8047536727786842e-07  1.8307295417475434e-06  4.3518259394014383e-06  7.2150065022267452e-06  1.0444731723107880e-05  1.4078953537710220e-05  1.8118280442093625e-05  2.2308623006951655e-05  2.4419270050449231e-05  2.7583142376189936e-05  2.5447172026402674e-05  2.1188289971221552e-05  1.7051661272674486e-05  1.3301982784839323e-05  9.9447889868117461e-06  6.9467437942952581e-06  4.2867986214784823e-06  1.9347887659533884e-06  -1.3908907238525285e-07  -1.9640978176401578e-06  -3.5675304525606016e-06  -4.9740720385702691e-06  -6.2055758245040717e-06  -7.2810990470088914e-06  -8.2170959498452839e-06  -9.0276631578602128e-06  -9.7247955122770749e-06  -1.0318636955766075e-05  -1.0817735001239352e-05  -1.1229328422380824e-05  -1.1559806761027521e-05  -1.1815126353897752e-05  -1.2001030185277247e-05  -1.2122273082990472e-05  -1.2180880387998794e-05  -1.2175069333741369e-05  -1.2099779410326570e-05  -1.1948143354026003e-05  -1.1712608651085101e-05  -1.1385244311149667e-05  -1.0957532913602877e-05  -1.0419997918244705e-05  -9.7618283848494859e-06  -8.9705360843862639e-06  -8.0316387358939746e-06  -6.9283623984051543e-06  -5.6413780583717150e-06  -4.1486094930098281e-06  -2.4252120715159095e-06  -4.4382199383359471e-07  1.8247778208483682e-06  4.4102158775688610e-06  7.3423681732807066e-06  1.0641999639849540e-05  1.4342213788527137e-05  1.8437620696479006e-05  2.2668007441685957e-05  2.4793842204884491e-05  2.7931580226902448e-05  2.5786031869895042e-05  2.1496741141563911e-05  1.7315621943502897e-05  1.3512352965619174e-05  1.0097255213638509e-05  7.0410611974666524e-06  4.3260527172547319e-06  1.9242933160114742e-06  -1.9275444162139257e-07  -2.0538891118934088e-06  -3.6865262680372222e-06  -5.1158625394914512e-06  -6.3644889964129388e-06  -7.4523055443475558e-06  -8.3966306581805673e-06  -9.2123926550733075e-06  -9.9123513826531727e-06  -1.0507320283496132e-05  -1.1006379308685346e-05  -1.1417107975000998e-05  -1.1746173924059713e-05  -1.1999886690845976e-05  -1.2185300628681884e-05  -1.2309083059669569e-05  -1.2373936509802009e-05  -1.2376745012511327e-05  -1.2310157570661648e-05  -1.2165599293327545e-05  -1.1934821460121946e-05  -1.1609768699608768e-05  -1.1181911432900727e-05  -1.0641646790964710e-05  -9.9778597766906923e-06  -9.1775882153252981e-06  -8.2257406552818058e-06  -7.1048484952675383e-06  -5.7948697345784150e-06  -4.2730880735286901e-06  -2.5142136761996932e-06  -4.9078761952123666e-07  1.8259687560553304e-06  4.4645193870681086e-06  7.4526980686871402e-06  1.0808238973327806e-05  1.4560474562348619e-05  1.8699557393562751e-05  2.2960895952401168e-05  2.5098493119977305e-05  2.8203958385785101e-05  2.6051411106922629e-05  2.1739598360165506e-05  1.7525304636722511e-05  1.3681712007139625e-05  1.0222547617650036e-05  7.1215415583339424e-06  4.3635453284108253e-06  1.9224418321184132e-06  -2.2917848852838695e-07  -2.1195965004443450e-06  -3.7761817436354097e-06  -5.2244166233273708e-06  -6.4873865456784231e-06  -7.5855973967070990e-06  -8.5370160586891445e-06  -9.3572172119899467e-06  -1.0059580375332172e-05  -1.0655492814813167e-05  -1.1154516416734540e-05  -1.1564518817928462e-05  -1.1892318449727219e-05  -1.2143923758429635e-05  -1.2328234781813919e-05  -1.2455115606072843e-05  -1.2528097654221031e-05  -1.2541486174542271e-05  -1.2484254842833686e-05  -1.2346018697945378e-05  -1.2118548252368966e-05  -1.1794312421544269e-05  -1.1365134780726385e-05  -1.0821468905312155e-05  -1.0152010219286509e-05  -9.3434324611513640e-06  -8.3801667366119350e-06  -7.2442098044133407e-06  -5.9149900062685269e-06  -4.3693433649133734e-06  -2.5817114699405100e-06  -5.2466321181991846e-07  1.8301252174425374e-06  4.5101092648461994e-06  7.5414765715110865e-06  1.0939633301777745e-05  1.4731119271737982e-05  1.8902895186408605e-05  2.3187311196923577e-05  2.5333745710318513e-05  2.8399878673933781e-05  2.6242649272746804e-05  2.1915376223312662e-05  1.7678131458841611e-05  1.3806425289542918e-05  1.0316263184181609e-05  7.1834294700127437e-06  4.3945990521197033e-06  1.9249975798791965e-06  -2.5190274723549590e-07  -2.1639267433749974e-06  -3.8383301175765898e-06  -5.3007321658482489e-06  -6.5745201673591728e-06  -7.6805961444774964e-06  -8.6373648242904696e-06  -9.4608470100749804e-06  -1.0164860840591765e-05  -1.0761219669434160e-05  -1.1259881709671530e-05  -1.1669053457199760e-05  -1.1995760825978612e-05  -1.2244551061665427e-05  -1.2427052712819130e-05  -1.2557610368991567e-05  -1.2640502755952237e-05  -1.2666154268090788e-05  -1.2617858653448785e-05  -1.2483972742577340e-05  -1.2257734158438456e-05  -1.1932800554224290e-05  -1.1501512440958648e-05  -1.0954396831961392e-05  -1.0279982456667094e-05  -9.4646460308557602e-06  -8.4924519155863337e-06  -7.3450044626631644e-06  -6.0013590465643718e-06  -4.4380529437216450e-06  -2.6293711447493846e-06  -5.4794789154045494e-07  1.8341679317833428e-06  4.5436740097897916e-06  7.6055714601815021e-06  1.1033638845062901e-05  1.4852506064487885e-05  1.9047004912532768e-05  2.3347463742679249e-05  2.5500148396088813e-05  2.8519091854800224e-05  2.6359333946850156e-05  2.2023132309808626e-05  1.7772436292191365e-05  1.3884094357384995e-05  1.0375429706838178e-05  7.2234348127511291e-06  4.4158889839159644e-06  1.9288541406470167e-06  -2.6362550338733142e-07  -2.1890561689710091e-06  -3.8745845621642946e-06  -5.3458789383069609e-06  -6.6264823783081593e-06  -7.7375154285315552e-06  -8.6976295884235585e-06  -9.5230971178013465e-06  -1.0227978183509589e-05  -1.0824313571945528e-05  -1.1322288635784721e-05  -1.1730448958859831e-05  -1.2056117885271178e-05  -1.2301810308646795e-05  -1.2482915822022625e-05  -1.2617021548525127e-05  -1.2708881565637969e-05  -1.2746793687982573e-05  -1.2705226975515424e-05  -1.2572573960802264e-05  -1.2345579810815326e-05  -1.2019112814326665e-05  -1.1585767558560739e-05  -1.1036010432483391e-05  -1.0358192911308525e-05  -9.5384670503289240e-06  -8.5606520756483478e-06  -7.4061056292749140e-06  -6.0536571644118378e-06  -4.4796686929397975e-06  -2.6583388655471095e-06  -5.6234949319466719e-07  1.8360216900366388e-06  4.5630204262847347e-06  7.6429513943251387e-06  1.1088651020275946e-05  1.4923648350730873e-05  1.9131573415196717e-05  2.3441590121848226e-05  2.5598159146825707e-05  2.8561473402958259e-05  2.6401257282584397e-05  2.2062365036569287e-05  1.7807302319662110e-05  1.3913365390639702e-05  1.0398331582842722e-05  7.2396170702769878e-06  4.4254103490796840e-06  1.9320930225673791e-06  -2.6606099445376237e-07  -2.1964199521374584e-06  -3.8860709252907655e-06  -5.3606836697439602e-06  -6.6438455435707109e-06  -7.7567475880938928e-06  -8.7181244110873030e-06  -9.5443337137110266e-06  -1.0249515291012150e-05  -1.0845779727600986e-05  -1.1343390557196553e-05  -1.1751017730734815e-05  -1.2075928199611671e-05  -1.2319996688211001e-05  -1.2499826560916634e-05  -1.263644443979