<?xml version="1.0"?>
<VTKFile type="UnstructuredGrid"  version="0.1"  >
<UnstructuredGrid>
<Piece  NumberOfPoints="1617" NumberOfCells="3072">
<Points>
<DataArray  type="Float64"  NumberOfComponents="3"  format="ascii">0 0 0  0.03125 0 0  0.0625 0 0  0.09375 0 0  0.125 0 0  0.15625 0 0  0.1875 0 0  0.21875 0 0  0.25 0 0  0.28125 0 0  0.3125 0 0  0.34375 0 0  0.375 0 0  0.40625 0 0  0.4375 0 0  0.46875 0 0  0.5 0 0  0.53125 0 0  0.5625 0 0  0.59375 0 0  0.625 0 0  0.65625 0 0  0.6875 0 0  0.71875 0 0  0.75 0 0  0.78125 0 0  0.8125 0 0  0.84375 0 0  0.875 0 0  0.90625 0 0  0.9375 0 0  0.96875 0 0  1 0 0  1.03125 0 0  1.0625 0 0  1.09375 0 0  1.125 0 0  1.15625 0 0  1.1875 0 0  1.21875 0 0  1.25 0 0  1.28125 0 0  1.3125 0 0  1.34375 0 0  1.375 0 0  1.40625 0 0  1.4375 0 0  1.46875 0 0  1.5 0 0  0 0.03125 0  0.03125 0.03125 0  0.0625 0.03125 0  0.09375 0.03125 0  0.125 0.03125 0  0.15625 0.03125 0  0.1875 0.03125 0  0.21875 0.03125 0  0.25 0.03125 0  0.28125 0.03125 0  0.3125 0.03125 0  0.34375 0.03125 0  0.375 0.03125 0  0.40625 0.03125 0  0.4375 0.03125 0  0.46875 0.03125 0  0.5 0.03125 0  0.53125 0.03125 0  0.5625 0.03125 0  0.59375 0.03125 0  0.625 0.03125 0  0.65625 0.03125 0  0.6875 0.03125 0  0.71875 0.03125 0  0.75 0.03125 0  0.78125 0.03125 0  0.8125 0.03125 0  0.84375 0.03125 0  0.875 0.03125 0  0.90625 0.03125 0  0.9375 0.03125 0  0.96875 0.03125 0  1 0.03125 0  1.03125 0.03125 0  1.0625 0.03125 0  1.09375 0.03125 0  1.125 0.03125 0  1.15625 0.03125 0  1.1875 0.03125 0  1.21875 0.03125 0  1.25 0.03125 0  1.28125 0.03125 0  1.3125 0.03125 0  1.34375 0.03125 0  1.375 0.03125 0  1.40625 0.03125 0  1.4375 0.03125 0  1.46875 0.03125 0  1.5 0.03125 0  0 0.0625 0  0.03125 0.0625 0  0.0625 0.0625 0  0.09375 0.0625 0  0.125 0.0625 0  0.15625 0.0625 0  0.1875 0.0625 0  0.21875 0.0625 0  0.25 0.0625 0  0.28125 0.0625 0  0.3125 0.0625 0  0.34375 0.0625 0  0.375 0.0625 0  0.40625 0.0625 0  0.4375 0.0625 0  0.46875 0.0625 0  0.5 0.0625 0  0.53125 0.0625 0  0.5625 0.0625 0  0.59375 0.0625 0  0.625 0.0625 0  0.65625 0.0625 0  0.6875 0.0625 0  0.71875 0.0625 0  0.75 0.0625 0  0.78125 0.0625 0  0.8125 0.0625 0  0.84375 0.0625 0  0.875 0.0625 0  0.90625 0.0625 0  0.9375 0.0625 0  0.96875 0.0625 0  1 0.0625 0  1.03125 0.0625 0  1.0625 0.0625 0  1.09375 0.0625 0  1.125 0.0625 0  1.15625 0.0625 0  1.1875 0.0625 0  1.21875 0.0625 0  1.25 0.0625 0  1.28125 0.0625 0  1.3125 0.0625 0  1.34375 0.0625 0  1.375 0.0625 0  1.40625 0.0625 0  1.4375 0.0625 0  1.46875 0.0625 0  1.5 0.0625 0  0 0.09375 0  0.03125 0.09375 0  0.0625 0.09375 0  0.09375 0.09375 0  0.125 0.09375 0  0.15625 0.09375 0  0.1875 0.09375 0  0.21875 0.09375 0  0.25 0.09375 0  0.28125 0.09375 0  0.3125 0.09375 0  0.34375 0.09375 0  0.375 0.09375 0  0.40625 0.09375 0  0.4375 0.09375 0  0.46875 0.09375 0  0.5 0.09375 0  0.53125 0.09375 0  0.5625 0.09375 0  0.59375 0.09375 0  0.625 0.09375 0  0.65625 0.09375 0  0.6875 0.09375 0  0.71875 0.09375 0  0.75 0.09375 0  0.78125 0.09375 0  0.8125 0.09375 0  0.84375 0.09375 0  0.875 0.09375 0  0.90625 0.09375 0  0.9375 0.09375 0  0.96875 0.09375 0  1 0.09375 0  1.03125 0.09375 0  1.0625 0.09375 0  1.09375 0.09375 0  1.125 0.09375 0  1.15625 0.09375 0  1.1875 0.09375 0  1.21875 0.09375 0  1.25 0.09375 0  1.28125 0.09375 0  1.3125 0.09375 0  1.34375 0.09375 0  1.375 0.09375 0  1.40625 0.09375 0  1.4375 0.09375 0  1.46875 0.09375 0  1.5 0.09375 0  0 0.125 0  0.03125 0.125 0  0.0625 0.125 0  0.09375 0.125 0  0.125 0.125 0  0.15625 0.125 0  0.1875 0.125 0  0.21875 0.125 0  0.25 0.125 0  0.28125 0.125 0  0.3125 0.125 0  0.34375 0.125 0  0.375 0.125 0  0.40625 0.125 0  0.4375 0.125 0  0.46875 0.125 0  0.5 0.125 0  0.53125 0.125 0  0.5625 0.125 0  0.59375 0.125 0  0.625 0.125 0  0.65625 0.125 0  0.6875 0.125 0  0.71875 0.125 0  0.75 0.125 0  0.78125 0.125 0  0.8125 0.125 0  0.84375 0.125 0  0.875 0.125 0  0.90625 0.125 0  0.9375 0.125 0  0.96875 0.125 0  1 0.125 0  1.03125 0.125 0  1.0625 0.125 0  1.09375 0.125 0  1.125 0.125 0  1.15625 0.125 0  1.1875 0.125 0  1.21875 0.125 0  1.25 0.125 0  1.28125 0.125 0  1.3125 0.125 0  1.34375 0.125 0  1.375 0.125 0  1.40625 0.125 0  1.4375 0.125 0  1.46875 0.125 0  1.5 0.125 0  0 0.15625 0  0.03125 0.15625 0  0.0625 0.15625 0  0.09375 0.15625 0  0.125 0.15625 0  0.15625 0.15625 0  0.1875 0.15625 0  0.21875 0.15625 0  0.25 0.15625 0  0.28125 0.15625 0  0.3125 0.15625 0  0.34375 0.15625 0  0.375 0.15625 0  0.40625 0.15625 0  0.4375 0.15625 0  0.46875 0.15625 0  0.5 0.15625 0  0.53125 0.15625 0  0.5625 0.15625 0  0.59375 0.15625 0  0.625 0.15625 0  0.65625 0.15625 0  0.6875 0.15625 0  0.71875 0.15625 0  0.75 0.15625 0  0.78125 0.15625 0  0.8125 0.15625 0  0.84375 0.15625 0  0.875 0.15625 0  0.90625 0.15625 0  0.9375 0.15625 0  0.96875 0.15625 0  1 0.15625 0  1.03125 0.15625 0  1.0625 0.15625 0  1.09375 0.15625 0  1.125 0.15625 0  1.15625 0.15625 0  1.1875 0.15625 0  1.21875 0.15625 0  1.25 0.15625 0  1.28125 0.15625 0  1.3125 0.15625 0  1.34375 0.15625 0  1.375 0.15625 0  1.40625 0.15625 0  1.4375 0.15625 0  1.46875 0.15625 0  1.5 0.15625 0  0 0.1875 0  0.03125 0.1875 0  0.0625 0.1875 0  0.09375 0.1875 0  0.125 0.1875 0  0.15625 0.1875 0  0.1875 0.1875 0  0.21875 0.1875 0  0.25 0.1875 0  0.28125 0.1875 0  0.3125 0.1875 0  0.34375 0.1875 0  0.375 0.1875 0  0.40625 0.1875 0  0.4375 0.1875 0  0.46875 0.1875 0  0.5 0.1875 0  0.53125 0.1875 0  0.5625 0.1875 0  0.59375 0.1875 0  0.625 0.1875 0  0.65625 0.1875 0  0.6875 0.1875 0  0.71875 0.1875 0  0.75 0.1875 0  0.78125 0.1875 0  0.8125 0.1875 0  0.84375 0.1875 0  0.875 0.1875 0  0.90625 0.1875 0  0.9375 0.1875 0  0.96875 0.1875 0  1 0.1875 0  1.03125 0.1875 0  1.0625 0.1875 0  1.09375 0.1875 0  1.125 0.1875 0  1.15625 0.1875 0  1.1875 0.1875 0  1.21875 0.1875 0  1.25 0.1875 0  1.28125 0.1875 0  1.3125 0.1875 0  1.34375 0.1875 0  1.375 0.1875 0  1.40625 0.1875 0  1.4375 0.1875 0  1.46875 0.1875 0  1.5 0.1875 0  0 0.21875 0  0.03125 0.21875 0  0.0625 0.21875 0  0.09375 0.21875 0  0.125 0.21875 0  0.15625 0.21875 0  0.1875 0.21875 0  0.21875 0.21875 0  0.25 0.21875 0  0.28125 0.21875 0  0.3125 0.21875 0  0.34375 0.21875 0  0.375 0.21875 0  0.40625 0.21875 0  0.4375 0.21875 0  0.46875 0.21875 0  0.5 0.21875 0  0.53125 0.21875 0  0.5625 0.21875 0  0.59375 0.21875 0  0.625 0.21875 0  0.65625 0.21875 0  0.6875 0.21875 0  0.71875 0.21875 0  0.75 0.21875 0  0.78125 0.21875 0  0.8125 0.21875 0  0.84375 0.21875 0  0.875 0.21875 0  0.90625 0.21875 0  0.9375 0.21875 0  0.96875 0.21875 0  1 0.21875 0  1.03125 0.21875 0  1.0625 0.21875 0  1.09375 0.21875 0  1.125 0.21875 0  1.15625 0.21875 0  1.1875 0.21875 0  1.21875 0.21875 0  1.25 0.21875 0  1.28125 0.21875 0  1.3125 0.21875 0  1.34375 0.21875 0  1.375 0.21875 0  1.40625 0.21875 0  1.4375 0.21875 0  1.46875 0.21875 0  1.5 0.21875 0  0 0.25 0  0.03125 0.25 0  0.0625 0.25 0  0.09375 0.25 0  0.125 0.25 0  0.15625 0.25 0  0.1875 0.25 0  0.21875 0.25 0  0.25 0.25 0  0.28125 0.25 0  0.3125 0.25 0  0.34375 0.25 0  0.375 0.25 0  0.40625 0.25 0  0.4375 0.25 0  0.46875 0.25 0  0.5 0.25 0  0.53125 0.25 0  0.5625 0.25 0  0.59375 0.25 0  0.625 0.25 0  0.65625 0.25 0  0.6875 0.25 0  0.71875 0.25 0  0.75 0.25 0  0.78125 0.25 0  0.8125 0.25 0  0.84375 0.25 0  0.875 0.25 0  0.90625 0.25 0  0.9375 0.25 0  0.96875 0.25 0  1 0.25 0  1.03125 0.25 0  1.0625 0.25 0  1.09375 0.25 0  1.125 0.25 0  1.15625 0.25 0  1.1875 0.25 0  1.21875 0.25 0  1.25 0.25 0  1.28125 0.25 0  1.3125 0.25 0  1.34375 0.25 0  1.375 0.25 0  1.40625 0.25 0  1.4375 0.25 0  1.46875 0.25 0  1.5 0.25 0  0 0.28125 0  0.03125 0.28125 0  0.0625 0.28125 0  0.09375 0.28125 0  0.125 0.28125 0  0.15625 0.28125 0  0.1875 0.28125 0  0.21875 0.28125 0  0.25 0.28125 0  0.28125 0.28125 0  0.3125 0.28125 0  0.34375 0.28125 0  0.375 0.28125 0  0.40625 0.28125 0  0.4375 0.28125 0  0.46875 0.28125 0  0.5 0.28125 0  0.53125 0.28125 0  0.5625 0.28125 0  0.59375 0.28125 0  0.625 0.28125 0  0.65625 0.28125 0  0.6875 0.28125 0  0.71875 0.28125 0  0.75 0.28125 0  0.78125 0.28125 0  0.8125 0.28125 0  0.84375 0.28125 0  0.875 0.28125 0  0.90625 0.28125 0  0.9375 0.28125 0  0.96875 0.28125 0  1 0.28125 0  1.03125 0.28125 0  1.0625 0.28125 0  1.09375 0.28125 0  1.125 0.28125 0  1.15625 0.28125 0  1.1875 0.28125 0  1.21875 0.28125 0  1.25 0.28125 0  1.28125 0.28125 0  1.3125 0.28125 0  1.34375 0.28125 0  1.375 0.28125 0  1.40625 0.28125 0  1.4375 0.28125 0  1.46875 0.28125 0  1.5 0.28125 0  0 0.3125 0  0.03125 0.3125 0  0.0625 0.3125 0  0.09375 0.3125 0  0.125 0.3125 0  0.15625 0.3125 0  0.1875 0.3125 0  0.21875 0.3125 0  0.25 0.3125 0  0.28125 0.3125 0  0.3125 0.3125 0  0.34375 0.3125 0  0.375 0.3125 0  0.40625 0.3125 0  0.4375 0.3125 0  0.46875 0.3125 0  0.5 0.3125 0  0.53125 0.3125 0  0.5625 0.3125 0  0.59375 0.3125 0  0.625 0.3125 0  0.65625 0.3125 0  0.6875 0.3125 0  0.71875 0.3125 0  0.75 0.3125 0  0.78125 0.3125 0  0.8125 0.3125 0  0.84375 0.3125 0  0.875 0.3125 0  0.90625 0.3125 0  0.9375 0.3125 0  0.96875 0.3125 0  1 0.3125 0  1.03125 0.3125 0  1.0625 0.3125 0  1.09375 0.3125 0  1.125 0.3125 0  1.15625 0.3125 0  1.1875 0.3125 0  1.21875 0.3125 0  1.25 0.3125 0  1.28125 0.3125 0  1.3125 0.3125 0  1.34375 0.3125 0  1.375 0.3125 0  1.40625 0.3125 0  1.4375 0.3125 0  1.46875 0.3125 0  1.5 0.3125 0  0 0.34375 0  0.03125 0.34375 0  0.0625 0.34375 0  0.09375 0.34375 0  0.125 0.34375 0  0.15625 0.34375 0  0.1875 0.34375 0  0.21875 0.34375 0  0.25 0.34375 0  0.28125 0.34375 0  0.3125 0.34375 0  0.34375 0.34375 0  0.375 0.34375 0  0.40625 0.34375 0  0.4375 0.34375 0  0.46875 0.34375 0  0.5 0.34375 0  0.53125 0.34375 0  0.5625 0.34375 0  0.59375 0.34375 0  0.625 0.34375 0  0.65625 0.34375 0  0.6875 0.34375 0  0.71875 0.34375 0  0.75 0.34375 0  0.78125 0.34375 0  0.8125 0.34375 0  0.84375 0.34375 0  0.875 0.34375 0  0.90625 0.34375 0  0.9375 0.34375 0  0.96875 0.34375 0  1 0.34375 0  1.03125 0.34375 0  1.0625 0.34375 0  1.09375 0.34375 0  1.125 0.34375 0  1.15625 0.34375 0  1.1875 0.34375 0  1.21875 0.34375 0  1.25 0.34375 0  1.28125 0.34375 0  1.3125 0.34375 0  1.34375 0.34375 0  1.375 0.34375 0  1
[...]
<PointData  Scalars="f_33"> 
<DataArray  type="Float64"  Name="f_33"  format="ascii">3.1451085517135088e-05  3.1743600781788702e-05  3.2608908803725834e-05  3.3069617919222075e-05  3.3100062318837744e-05  3.2844334229759713e-05  3.2413383288022011e-05  3.1877279960969019e-05  3.1277023862593791e-05  3.0634663320934115e-05  2.9960993429800419e-05  2.9261000910332739e-05  2.8536971127862671e-05  2.7789995641780089e-05  2.7020584499268110e-05  2.6228847334517438e-05  2.5414495803120643e-05  2.4576791566265066e-05  2.3714505190031989e-05  2.2825929062102904e-05  2.1908977643542633e-05  2.0961397431958632e-05  1.9981090967680942e-05  1.8966533973648265e-05  1.7917237278947553e-05  1.6834184124891408e-05  1.5720167556519995e-05  1.4579966262173353e-05  1.3420327561882956e-05  1.2249763866377003e-05  1.1078202579189092e-05  9.9165500488797463e-06  8.7762360457179165e-06  7.6687952904580159e-06  6.6055308236294321e-06  5.5972708165132450e-06  4.6542409496251540e-06  3.7859420566821255e-06  3.0010926488565167e-06  2.3068320578355152e-06  1.7079117385937847e-06  1.2011910972944734e-06  7.7410067230544922e-07  3.8037668399105990e-07  -3.3571864585997286e-08  -6.6585458394206491e-07  -1.6110706846669500e-06  -2.9433759471708641e-06  -3.0873492033691420e-06  3.1562235817918748e-05  3.1537692586231089e-05  3.2591635915194201e-05  3.3116628939587950e-05  3.3128714247587126e-05  3.2837035764776866e-05  3.2380271458838330e-05  3.1829743001601891e-05  3.1223932597510213e-05  3.0581937274076979e-05  2.9912006602915708e-05  2.9217387760366529e-05  2.8499340883609523e-05  2.7758418413947835e-05  2.6994871886796552e-05  2.6208695191004989e-05  2.5399546209742290e-05  2.4566647904749740e-05  2.3708717349298233e-05  2.2823958112264831e-05  2.1910148321869542e-05  2.0964849200707771e-05  1.9985741142484291e-05  1.8971066775549756e-05  1.7920128824539440e-05  1.6833765334063729e-05  1.5714716974875573e-05  1.4567816540250309e-05  1.3399966001453103e-05  1.2219910045404044e-05  1.1037853130808426e-05  9.8649893010272131e-06  8.7130188203764802e-06  7.5937131149885075e-06  6.5185759954460831e-06  5.4986141858381546e-06  4.5442465631578870e-06  3.6652448766950318e-06  2.8708012855878197e-06  2.1688765524262754e-06  1.5656775598014131e-06  1.0600749423992983e-06  6.4234736333977768e-07  2.6762008268829007e-07  -1.1502710982815061e-07  -7.0881671003091050e-07  -1.6573989222887380e-06  -3.1555703487149927e-06  -3.2233715108016545e-06  3.1701690500884539e-05  3.1561833226592003e-05  3.2775029313836986e-05  3.3323507548106651e-05  3.3302068440371684e-05  3.2940104429217979e-05  3.2425327728024469e-05  3.1831847059059126e-05  3.1198631654360946e-05  3.0541561773571717e-05  2.9865017188582893e-05  2.9169090422076054e-05  2.8452872059463478e-05  2.7715578917219486e-05  2.6956696306546073e-05  2.6175795227102243e-05  2.5372292156318263e-05  2.4545237554206239e-05  2.3693162669714363e-05  2.2814010623261248e-05  2.1905185179810719e-05  2.0963749682498523e-05  1.9986791325477301e-05  1.8971931729977831e-05  1.7917921129173986e-05  1.6825215844579890e-05  1.5696425171811251e-05  1.4536534648193737e-05  1.3352862893136722e-05  1.2154770091768328e-05  1.0953186412960306e-05  9.7600539814574958e-06  8.5877766736582053e-06  7.4487512728621516e-06  6.3550348595237379e-06  5.3181623562629542e-06  4.3491564340111122e-06  3.4586119427244255e-06  2.6570043551260876e-06  1.9541978442630148e-06  1.3592475437758744e-06  8.7397463595462817e-07  4.9198737396213832e-07  1.6547867097308698e-07  -1.5932457365553954e-07  -7.2799651974027655e-07  -1.7001483140658227e-06  -3.3143445043249517e-06  -3.2855939078693154e-06  3.1819011657536293e-05  3.1680647070414321e-05  3.3033819535521532e-05  3.3609787835856580e-05  3.3576976192199543e-05  3.3151243253684267e-05  3.2573077301026448e-05  3.1922539824676791e-05  3.1246359284805783e-05  3.0559758195115419e-05  2.9864523082455498e-05  2.9157773982301246e-05  2.8436142164086574e-05  2.7697081223985941e-05  2.6938913235800907e-05  2.6160477809946929e-05  2.5360727202450469e-05  2.4538372614618483e-05  2.3691609146545722e-05  2.2817945246479320e-05  2.1914179260358352e-05  2.0976572941236470e-05  2.0001254979917748e-05  1.8984841829171733e-05  1.7925196500488429e-05  1.6822183287945899e-05  1.5678250466396573e-05  1.4498704714752559e-05  1.3291621534259964e-05  1.2067430644597671e-05  1.0838286805075288e-05  9.6173643355875710e-06  8.4182025939217748e-06  7.2541923302362594e-06  6.1382606399354304e-06  5.0827637011022727e-06  4.0996223377532127e-06  3.2005678998823356e-06  2.3976152557016013e-06  1.7026375548182297e-06  1.1269695157424574e-06  6.7414057840712433e-07  3.3722079207970830e-07  6.2508726579464907e-08  -2.1771627855252427e-07  -7.7538248297476128e-07  -1.7900508014062960e-06  -3.4754752185623669e-06  -3.4499419146849684e-06  3.2013674658396491e-05  3.1897253828211077e-05  3.3330517924528204e-05  3.3936631344774374e-05  3.3903785475173636e-05  3.3431908915771503e-05  3.2797859834368125e-05  3.2088936753363343e-05  3.1363727359718887e-05  3.0639010811710003e-05  2.9916205758013203e-05  2.9190551026992593e-05  2.8456675704691611e-05  2.7710323086678573e-05  2.6948530537000735e-05  2.6169238830378915e-05  2.5370780480798154e-05  2.4551394993141476e-05  2.3708814561643885e-05  2.2839959050419151e-05  2.1940804554854796e-05  2.1006508489132252e-05  2.0031859825230138e-05  1.9012060256531380e-05  1.7943735643879350e-05  1.6825966795356997e-05  1.5661077556238122e-05  1.4454970293748344e-05  1.3216937273357752e-05  1.1959032029016407e-05  1.0695188195530020e-05  9.4402963246153964e-06  8.2094104835596276e-06  7.0171875542399652e-06  5.8776070715328186e-06  4.8039589399788435e-06  3.8091067972534378e-06  2.9058568181961053e-06  2.1074905669590493e-06  1.4272236249824962e-06  8.7737424320248673e-07  4.6109932500244084e-07  1.6827386986147710e-07  -6.2849781637622378e-08  -3.1313294563618441e-07  -8.7088001226636933e-07  -1.9199467971179606e-06  -3.6506396950517248e-06  -3.6390498817330657e-06  3.2280004234122936e-05  3.2180288764078364e-05  3.3657220431924795e-05  3.4289073198011288e-05  3.4257691597915690e-05  3.3754049394238403e-05  3.3074086571316883e-05  3.2312555569991574e-05  3.1539203101030769e-05  3.0773635646550280e-05  3.0018751677054056e-05  2.9269096323188951e-05  2.8518069875393690e-05  2.7760064739788527e-05  2.6990957581238246e-05  2.6207792870365593e-05  2.5408242045988329e-05  2.4590022060309915e-05  2.3750341118265844e-05  2.2885431063717173e-05  2.1990264401817468e-05  2.1058593382357309e-05  2.0083445551283636e-05  1.9058127339014936e-05  1.7977614233035542e-05  1.6840005218232057e-05  1.5647615162877270e-05  1.4407369348224009e-05  1.3130415039154620e-05  1.1831130008635892e-05  1.0525853935586818e-05  9.2316640048500665e-06  7.9654173552798076e-06  6.7431598075423684e-06  5.5799136182718787e-06  4.4897857526368084e-06  3.4863575679503533e-06  2.5831361228188939e-06  1.7940637124538546e-06  1.1327648590417317e-06  6.1122611259308403e-07  2.3071501829195301e-07  -2.3320106183289605e-08  -2.2027467183400511e-07  -4.5099367473342902e-07  -1.0123884901681388e-06  -2.0870798264405988e-06  -3.8473827717234619e-06  -3.8489844384227215e-06  3.2595068332461958e-05  3.2506215854451097e-05  3.4008201457243334e-05  3.4657439789220385e-05  3.4625626807831016e-05  3.4098832993250153e-05  3.3381729045601705e-05  3.2575622224706078e-05  3.1758549164593984e-05  3.0953527451437304e-05  3.0165816350377990e-05  2.9390142157230908e-05  2.8619405794969203e-05  2.7847095591524533e-05  2.7068179927335393e-05  2.6278927006098167e-05  2.5476404743389718e-05  2.4657842540314498e-05  2.3819945325257550e-05  2.2958234719008586e-05  2.2066554514090456e-05  2.1136957098909603e-05  2.0160219533171468e-05  1.9127144058463511e-05  1.8030517185331726e-05  1.6867225376340792e-05  1.5639804639617790e-05  1.4356865882978934e-05  1.3032315053220423e-05  1.1683752420517455e-05  1.0330625272777163e-05  8.9926154324809692e-06  7.6885233282932556e-06  6.4357031145036400e-06  5.2499843372064812e-06  4.1459468672830414e-06  3.1374495314457799e-06  2.2381439501711474e-06  1.4619245245659721e-06  8.2195167147716886e-07  3.2892169378496169e-07  -1.8563581879080487e-08  -2.3956200923909616e-07  -4.0978071597360879e-07  -6.2687068957256183e-07  -1.1920144272733525e-06  -2.2848779491380252e-06  -4.0645703061241442e-06  -4.0755372212056693e-06  3.2937148281852386e-05  3.2855423807834797e-05  3.4372630905867739e-05  3.5032219915637187e-05  3.4997953994352188e-05  3.4452810842524208e-05  3.3705699442337561e-05  3.2862823783399729e-05  3.2007886790602674e-05  3.1167301866887710e-05  3.0348745440263893e-05  2.9547636076018835e-05  2.8756885645058305e-05  2.7969467393103461e-05  2.7179708421448414e-05  2.6383262812335501e-05  2.5576705352871983e-05  2.4756873935074331e-05  2.3920068525511337e-05  2.3061170569548037e-05  2.2172852371948584e-05  2.1245191991984964e-05  2.0266129541138852e-05  1.9223141101959322e-05  1.8106061278991361e-05  1.6910265352506358e-05  1.5638928554604424e-05  1.4303391970595923e-05  1.2921622440638691e-05  1.1515594237592978e-05  1.0108609237322990e-05  8.7232408171918825e-06  7.3801397678660707e-06  6.0976247836375995e-06  4.8918529525895444e-06  3.7773338707353538e-06  2.7676253516420066e-06  1.8759086450288864e-06  1.1153751659418498e-06  4.9805980273157476e-07  3.2815921740296180e-08  -2.8462318995353203e-07  -4.7734563932629205e-07  -6.2589970601095447e-07  -8.3242612720180420e-07  -1.4000833676430571e-06  -2.5055178301962953e-06  -4.2981384123393752e-06  -4.3153458976721130e-06  3.3288143131903699e-05  3.3211319044730879e-05  3.4738241916251278e-05  3.5403465035157415e-05  3.5365386476748334e-05  3.4804996025879694e-05  3.4033644920048196e-05  3.3160889193028935e-05  3.2274345667602922e-05  3.1403356321565431e-05  3.0557691300265342e-05  2.9733679443860903e-05  2.8924512005963932e-05  2.8122918899586314e-05  2.7322794685931759e-05  2.6519319782628744e-05  2.5708685063334662e-05  2.4887449743602214e-05  2.4051662235198760e-05  2.3195731874177196e-05  2.2311237169519382e-05  2.1386066230835976e-05  2.0404613573364652e-05  1.9349866687394941e-05  1.8207550879817617e-05  1.6971107926128013e-05  1.5645106616919066e-05  1.4245305728991416e-05  1.2795628610804281e-05  1.1323859365595198e-05  9.8578432681455826e-06  8.4230496689951238e-06  7.0415277357085360e-06  5.7318877238543290e-06  4.5098872748517831e-06  3.3892716682451415e-06  2.3826638370834870e-06  1.5021996268907762e-06  7.5985375816593406e-07  1.6612176855851845e-07  -2.7220330269488977e-07  -5.6211643098856090e-07  -7.3007420228202239e-07  -8.6021687621460051e-07  -1.0576290995355811e-06  -1.6262847709595338e-06  -2.7402065075230069e-06  -4.5414995028289197e-06  -4.5628359253631107e-06  3.3632746901823158e-05  3.3559463646654322e-05  3.5092883489678669e-05  3.5760906641356822e-05  3.5718452784556985e-05  3.5145310283909504e-05  3.4354515488180181e-05  3.3457914687011830e-05  3.2545911666812525e-05  3.1650153475916488e-05  3.0782114195921929e-05  2.9939045437366918e-05  2.9114510536115760e-05  2.8301153416672906e-05  2.7492563194068611e-05  2.6683530032186051e-05  2.5869922477182948e-05  2.5048094725797100e-05  2.4214010177190754e-05  2.3361857199474128e-05  2.2482376459202390e-05  2.1561197398877943e-05  2.0578345485188074e-05  1.9510626233651193e-05  1.8337790296655772e-05  1.7050705662807580e-05  1.5656730326044568e-05  1.4178837903500956e-05  1.2649652830862848e-05  1.1104417598018537e-05  9.5758943225950945e-06  8.0919111310502674e-06  6.6749437104409058e-06  5.3428433406031188e-06  4.1100288228738968e-06  2.9887164622634176e-06  1.9899990100615624e-06  1.1245144136680732e-06  4.0269657103047786e-07  -1.6667476003925696e-07  -5.7883734167608571e-07  -8.4319294286564888e-07  -9.8889804358303794e-07  -1.1027103271307238e-06  -1.2916518228238842e-06  -1.8599224874122134e-06  -2.9793625409629213e-06  -4.7864362013568050e-06  -4.8104909602279740e-06  3.3957719185993630e-05  3.3887114325198670e-05  3.5425092944820698e-05  3.6094360222628565e-05  3.6047626855127670e-05  3.5464027317584763e-05  3.4657929892167970e-05  3.3742808857644983e-05  3.2811098169236888e-05  3.1896192238855627e-05  3.1010923772250232e-05  3.0153371414435293e-05  2.9317475797447601e-05  2.8495874865934950e-05  2.7681916512820625e-05  2.6870027376353488e-05  2.6055742022795815e-05  2.5235189493215601e-05  2.4404359617208691e-05  2.3557486822951022e-05  2.2684985220773387e-05  2.1770462859398023e-05  2.0788756704679868e-05  1.9707994407882101e-05  1.8498770612811611e-05  1.7148374131383039e-05  1.5669634483868367e-05  1.4097461166749798e-05  1.2477011393164748e-05  1.0852488784752538e-05  9.2611045715101136e-06  7.7315955110832601e-06  6.2852328564222461e-06  4.9377130326334561e-06  3.7010798878477584e-06  2.5853190227711958e-06  1.5995504967205513e-06  7.5266083356399278e-07  5.3437612526464700e-08  -4.9101708789760408e-07  -8.7776547503225639e-07  -1.1182066714606511e-06  -1.2435839394884396e-06  -1.3425282083236463e-06  -1.5233313599392691e-06  -2.0901125482316211e-06  -3.2129073713577265e-06  -5.0237329119286187e-06  -5.0495539604058658e-06  3.4251481985299296e-05  3.4182980933800719e-05  3.5724318228862429e-05  3.6394079043143535e-05  3.6343606461559243e-05  3.5751741966474233e-05  3.4933982699858139e-05  3.4005010142878484e-05  3.3058768569306268e-05  3.2129973342186171e-05  3.1232536129051800e-05  3.0365243319037182e-05  2.9522398468081989e-05  2.8696686903538872e-05  2.7881264537234230e-05  2.7070203702103078e-05  2.6258635678238412e-05  2.5442331501560375e-05  2.4617266541607492e-05  2.3777846261487938e-05  2.2914973618337825e-05  2.2010972470548107e-05  2.1035133982166600e-05  1.9943236761765153e-05  1.8691032755638921e-05  1.7260731164477549e-05  1.5675942121759128e-05  1.3991447642711665e-05  1.2269769987911478e-05  1.0564437529246919e-05  8.9149245776533060e-06  7.3481451026745503e-06  5.8819115018759986e-06  4.5282419165204341e-06  3.2959147660906635e-06  2.1922402888443389e-06  1.2242028162091334e-06  3.9894595054438186e-07  -2.7626606363588080e-07  -7.9578729575457193e-07  -1.1581764315674332e-06  -1.3763856774787114e-06  -1.4832023152414837e-06  -1.5685593598155625e-06  -1.7415604376460345e-06  -2.3060848878897011e-06  -3.4306739588253114e-06  -5.2438118062237424e-06  -5.2707525927399337e-06  3.4503981213249206e-05  3.4437170540705970e-05  3.5981086145887278e-05  3.6651065612689624e-05  3.6597637754350322e-05  3.5999569043832283e-05  3.5173324314297521e-05  3.4234503372108276e-05  3.3278192543944617e-05  3.2340113820020444e-05  3.1435040384171694e-05  3.0562367042109037e-05  2.9716760600970842e-05  2.8891023352764836e-05  2.8078207943770084e-05  2.7272092711893049e-05  2.6467360200144135e-05  2.5659251673123652e-05  2.4843453853957579e-05  2.4014307001571538e-05  2.3164143082619372e-05  2.2275278042385390e-05  2.1312860895007133e-05  2.0214894177459622e-05  1.8912072129431122e-05  1.7379825702628169e-05  1.5662860378550428e-05  1.3848554766039693e-05  1.2021460193867421e-05  1.0241602601589849e-05  8.5457866840913508e-06  6.9551101938839015e-06  5.4815219616741157e-06  4.1322115660769680e-06  2.9123111705865666e-06  1.8264802838510868e-06  8.7977987947300860e-07  7.7900595236582513e-08  -5.7309172434645735e-07  -1.0686526121878457e-06  -1.4084425834845273e-06  -1.6065274916723693e-06  -1.6967709597358021e-06  -1.7699690414074769e-06  -1.9357159884172373e-06  -2.4975827329030016e-06  -3.6228845247983292e-06  -5.4373312252239814e-06  -5.4649621916250213e-06  3.4706712104520102e-05  3.4641259881059729e-05  3.6187197897551303e-05  3.6857375893166470e-05  3.6801863609432246e-05  3.6199462068400032e-05  3.5367437210100442e-05  3.4422082244346618e-05  3.3459342477297599e-05  3.2515702564661975e-05  3.1606621270739059e-05  3.0732020872456653e-05  2.9886943561785923e-05  2.9064401930790569e-05  2.8257495313102061e-05  2.7459875871787556e-05  2.6665884559564193e-05  2.5870211263077610e-05  2.5067856772612908e-05  2.4252490211703713e-05  2.3418188516885369e-05  2.2548537574420398e-05  2.1610032832971030e-05  2.0514781771333681e-05  1.9152259774882468e-05  1.7490645390941214e-05  1.5613291926647929e-05  1.3658446115230332e-05  1.1733900569631886e-05  9.8971670675377930e-06  8.1745076747569967e-06  6.5770718964502003e-06  5.1095143685131567e-06  3.7741324358990272e-06  2.5728812369074023e-06  1.5083695720893349e-06  5.8430806668508352e-07  -1.9456105242130357e-07  -8.2292591236504258e-07  -1.2969347089907587e-06  -1.6169522735893756e-06  -1.7977626192708506e-06  -1.8739210667532164e-06  -1.9367574475006254e-06  -2.0961359441109504e-06  -2.6553186003353983e-06  -3.7806479732477861e-06  -5.5957396488461007e-06  -5.6237934926236618e-06  3.4852835292354000e-05  3.4788442426829025e-05  3.6335953191878723e-05  3.7006425343467442e-05  3.6949686027169969e-05  3.6344598749352605e-05  3.5509038412250020e-05  3.4559788887037257e-05  3.3593407296034317e-05  3.2646925835901148e-05  3.1736321043029301e-05  3.0861948902881842e-05  3.0019212989851069e-05  2.9201407024361319e-05  2.8401834057215970e-05  2.7614258835807476e-05  2.6832983708338375e-05  2.6052456270065980e-05  2.5266958985549545e-05  2.4469158129212448e-05  2.3653508417880996e-05  2.2804710377577224e-05  2.1900642168117077e-05  2.0816978513301773e-05  1.9386318030812128e-05  1.7571763016133191e-05  1.5514560464155088e-05  1.3425936946899116e-05  1.1430363789448778e-05  9.5656836944445382e-06  7.8395245912366585e-06  6.2515558630220052e-06  4.8001008823728711e-06  3.4840332573125694e-06  2.3034323749963087e-06  1.2598553421927944e-06  3.5639769396609157e-07  -4.0259990177429371e-07  -1.0121508668631949e-06  -1.4687325167461062e-06  -1.7730803033298611e-06  -1.9403810463543394e-06  -2.0055889629477328e-06  -2.0603357699297881e-06  -2.2146160936323514e-06  -2.7714407924067639e-06  -3.8964376639526847e-06  -5.7117749651137690e-06  -5.7401061587515037e-06  3.4937328173555416e-05  3.4873702031076138e-05  3.6422377246587062e-05  3.7093279580289616e-05  3.7036115096326610e-05  3.6429778969102424e-05  3.5592532414308598e-05  3.4641446785446770e-05  3.3673448981925505e-05  3.2725902133110689e-05  3.1815111299660480e-05  3.0941725653253104e-05  3.0101421756816112e-05  2.9287746261922201e-05  2.8494247763523983e-05  2.7714935023463504e-05  2.6944337656161001e-05  2.6177085630194630e-05  2.5407287417546813e-05  2.4627268454066509e-05  2.3829976801475956e-05  2.3000586611091845e-05  2.2134295247673022e-05  2.1059442995025733e-05  1.9565879596858295e-05  1.7613314543620936e-05  1.5386242715976398e-05  1.3197671967034685e-05  1.1172727692849284e-05  9.3097838978782992e-06  7.5967872050090505e-06  6.0256801753314808e-06  4.5918994833646468e-06  3.2932127440494453e-06  2.1292628815791618e-06  1.1014378923470251e-06  2.1277135518848035e-07  -5.3242897474081464e-07  -1.1292271267906846e-06  -1.5741952525003883e-06  -1.8682163162616930e-06  -2.0266639741363100e-06  -2.0846896194977871e-06  -2.1340784002530427e-06  -2.2848815487507392e-06  -2.8399651026772636e-06  -3.9645149032277801e-06  -5.7798901907440961e-06  -5.8084383409576570e-06  3.4957126356212566e-05  3.4893970351848934e-05  3.6443415669217677e-05  3.7114897140699943e-05  3.7058063224572262e-05  3.6451773382022208e-05  3.5614427889806664e-05  3.4663174930603365e-05  3.3695062566800572e-05  3.2747555982674142e-05  3.1837070692347769e-05  3.0964356062687313e-05  3.0125188372516093e-05  2.9313211518192981e-05  2.8522075776173756e-05  2.7745902074660672e-05  2.6979349277492773e-05  2.6217196892836253e-05  2.5453627346850929e-05  2.4681274668043226e-05  2.3891834393754342e-05  2.3072552613722234e-05  2.2227148933397383e-05  2.1166228259663738e-05  1.9639466878867445e-05  1.7637562669529317e-05  1.5331142163455324e-05  1.3087812832658927e-05  1.1063192479204598e-05  9.2087998504673910e-06  7.5056363910367140e-06  5.9435837544177095e-06  4.5180087698562738e-06  3.2267974825784881e-06  2.0697008781373031e-06  1.0481870870976051e-06  1.6534827770672578e-07  -5.7446790310759468e-07  -1.1663070092436724e-06  -1.6067486168783041e-06  