<?xml version="1.0"?>
<VTKFile type="UnstructuredGrid"  version="0.1"  >
<UnstructuredGrid>
<Piece  NumberOfPoints="1617" NumberOfCells="3072">
<Points>
<DataArray  type="Float64"  NumberOfComponents="3"  format="ascii">0 0 0  0.03125 0 0  0.0625 0 0  0.09375 0 0  0.125 0 0  0.15625 0 0  0.1875 0 0  0.21875 0 0  0.25 0 0  0.28125 0 0  0.3125 0 0  0.34375 0 0  0.375 0 0  0.40625 0 0  0.4375 0 0  0.46875 0 0  0.5 0 0  0.53125 0 0  0.5625 0 0  0.59375 0 0  0.625 0 0  0.65625 0 0  0.6875 0 0  0.71875 0 0  0.75 0 0  0.78125 0 0  0.8125 0 0  0.84375 0 0  0.875 0 0  0.90625 0 0  0.9375 0 0  0.96875 0 0  1 0 0  1.03125 0 0  1.0625 0 0  1.09375 0 0  1.125 0 0  1.15625 0 0  1.1875 0 0  1.21875 0 0  1.25 0 0  1.28125 0 0  1.3125 0 0  1.34375 0 0  1.375 0 0  1.40625 0 0  1.4375 0 0  1.46875 0 0  1.5 0 0  0 0.03125 0  0.03125 0.03125 0  0.0625 0.03125 0  0.09375 0.03125 0  0.125 0.03125 0  0.15625 0.03125 0  0.1875 0.03125 0  0.21875 0.03125 0  0.25 0.03125 0  0.28125 0.03125 0  0.3125 0.03125 0  0.34375 0.03125 0  0.375 0.03125 0  0.40625 0.03125 0  0.4375 0.03125 0  0.46875 0.03125 0  0.5 0.03125 0  0.53125 0.03125 0  0.5625 0.03125 0  0.59375 0.03125 0  0.625 0.03125 0  0.65625 0.03125 0  0.6875 0.03125 0  0.71875 0.03125 0  0.75 0.03125 0  0.78125 0.03125 0  0.8125 0.03125 0  0.84375 0.03125 0  0.875 0.03125 0  0.90625 0.03125 0  0.9375 0.03125 0  0.96875 0.03125 0  1 0.03125 0  1.03125 0.03125 0  1.0625 0.03125 0  1.09375 0.03125 0  1.125 0.03125 0  1.15625 0.03125 0  1.1875 0.03125 0  1.21875 0.03125 0  1.25 0.03125 0  1.28125 0.03125 0  1.3125 0.03125 0  1.34375 0.03125 0  1.375 0.03125 0  1.40625 0.03125 0  1.4375 0.03125 0  1.46875 0.03125 0  1.5 0.03125 0  0 0.0625 0  0.03125 0.0625 0  0.0625 0.0625 0  0.09375 0.0625 0  0.125 0.0625 0  0.15625 0.0625 0  0.1875 0.0625 0  0.21875 0.0625 0  0.25 0.0625 0  0.28125 0.0625 0  0.3125 0.0625 0  0.34375 0.0625 0  0.375 0.0625 0  0.40625 0.0625 0  0.4375 0.0625 0  0.46875 0.0625 0  0.5 0.0625 0  0.53125 0.0625 0  0.5625 0.0625 0  0.59375 0.0625 0  0.625 0.0625 0  0.65625 0.0625 0  0.6875 0.0625 0  0.71875 0.0625 0  0.75 0.0625 0  0.78125 0.0625 0  0.8125 0.0625 0  0.84375 0.0625 0  0.875 0.0625 0  0.90625 0.0625 0  0.9375 0.0625 0  0.96875 0.0625 0  1 0.0625 0  1.03125 0.0625 0  1.0625 0.0625 0  1.09375 0.0625 0  1.125 0.0625 0  1.15625 0.0625 0  1.1875 0.0625 0  1.21875 0.0625 0  1.25 0.0625 0  1.28125 0.0625 0  1.3125 0.0625 0  1.34375 0.0625 0  1.375 0.0625 0  1.40625 0.0625 0  1.4375 0.0625 0  1.46875 0.0625 0  1.5 0.0625 0  0 0.09375 0  0.03125 0.09375 0  0.0625 0.09375 0  0.09375 0.09375 0  0.125 0.09375 0  0.15625 0.09375 0  0.1875 0.09375 0  0.21875 0.09375 0  0.25 0.09375 0  0.28125 0.09375 0  0.3125 0.09375 0  0.34375 0.09375 0  0.375 0.09375 0  0.40625 0.09375 0  0.4375 0.09375 0  0.46875 0.09375 0  0.5 0.09375 0  0.53125 0.09375 0  0.5625 0.09375 0  0.59375 0.09375 0  0.625 0.09375 0  0.65625 0.09375 0  0.6875 0.09375 0  0.71875 0.09375 0  0.75 0.09375 0  0.78125 0.09375 0  0.8125 0.09375 0  0.84375 0.09375 0  0.875 0.09375 0  0.90625 0.09375 0  0.9375 0.09375 0  0.96875 0.09375 0  1 0.09375 0  1.03125 0.09375 0  1.0625 0.09375 0  1.09375 0.09375 0  1.125 0.09375 0  1.15625 0.09375 0  1.1875 0.09375 0  1.21875 0.09375 0  1.25 0.09375 0  1.28125 0.09375 0  1.3125 0.09375 0  1.34375 0.09375 0  1.375 0.09375 0  1.40625 0.09375 0  1.4375 0.09375 0  1.46875 0.09375 0  1.5 0.09375 0  0 0.125 0  0.03125 0.125 0  0.0625 0.125 0  0.09375 0.125 0  0.125 0.125 0  0.15625 0.125 0  0.1875 0.125 0  0.21875 0.125 0  0.25 0.125 0  0.28125 0.125 0  0.3125 0.125 0  0.34375 0.125 0  0.375 0.125 0  0.40625 0.125 0  0.4375 0.125 0  0.46875 0.125 0  0.5 0.125 0  0.53125 0.125 0  0.5625 0.125 0  0.59375 0.125 0  0.625 0.125 0  0.65625 0.125 0  0.6875 0.125 0  0.71875 0.125 0  0.75 0.125 0  0.78125 0.125 0  0.8125 0.125 0  0.84375 0.125 0  0.875 0.125 0  0.90625 0.125 0  0.9375 0.125 0  0.96875 0.125 0  1 0.125 0  1.03125 0.125 0  1.0625 0.125 0  1.09375 0.125 0  1.125 0.125 0  1.15625 0.125 0  1.1875 0.125 0  1.21875 0.125 0  1.25 0.125 0  1.28125 0.125 0  1.3125 0.125 0  1.34375 0.125 0  1.375 0.125 0  1.40625 0.125 0  1.4375 0.125 0  1.46875 0.125 0  1.5 0.125 0  0 0.15625 0  0.03125 0.15625 0  0.0625 0.15625 0  0.09375 0.15625 0  0.125 0.15625 0  0.15625 0.15625 0  0.1875 0.15625 0  0.21875 0.15625 0  0.25 0.15625 0  0.28125 0.15625 0  0.3125 0.15625 0  0.34375 0.15625 0  0.375 0.15625 0  0.40625 0.15625 0  0.4375 0.15625 0  0.46875 0.15625 0  0.5 0.15625 0  0.53125 0.15625 0  0.5625 0.15625 0  0.59375 0.15625 0  0.625 0.15625 0  0.65625 0.15625 0  0.6875 0.15625 0  0.71875 0.15625 0  0.75 0.15625 0  0.78125 0.15625 0  0.8125 0.15625 0  0.84375 0.15625 0  0.875 0.15625 0  0.90625 0.15625 0  0.9375 0.15625 0  0.96875 0.15625 0  1 0.15625 0  1.03125 0.15625 0  1.0625 0.15625 0  1.09375 0.15625 0  1.125 0.15625 0  1.15625 0.15625 0  1.1875 0.15625 0  1.21875 0.15625 0  1.25 0.15625 0  1.28125 0.15625 0  1.3125 0.15625 0  1.34375 0.15625 0  1.375 0.15625 0  1.40625 0.15625 0  1.4375 0.15625 0  1.46875 0.15625 0  1.5 0.15625 0  0 0.1875 0  0.03125 0.1875 0  0.0625 0.1875 0  0.09375 0.1875 0  0.125 0.1875 0  0.15625 0.1875 0  0.1875 0.1875 0  0.21875 0.1875 0  0.25 0.1875 0  0.28125 0.1875 0  0.3125 0.1875 0  0.34375 0.1875 0  0.375 0.1875 0  0.40625 0.1875 0  0.4375 0.1875 0  0.46875 0.1875 0  0.5 0.1875 0  0.53125 0.1875 0  0.5625 0.1875 0  0.59375 0.1875 0  0.625 0.1875 0  0.65625 0.1875 0  0.6875 0.1875 0  0.71875 0.1875 0  0.75 0.1875 0  0.78125 0.1875 0  0.8125 0.1875 0  0.84375 0.1875 0  0.875 0.1875 0  0.90625 0.1875 0  0.9375 0.1875 0  0.96875 0.1875 0  1 0.1875 0  1.03125 0.1875 0  1.0625 0.1875 0  1.09375 0.1875 0  1.125 0.1875 0  1.15625 0.1875 0  1.1875 0.1875 0  1.21875 0.1875 0  1.25 0.1875 0  1.28125 0.1875 0  1.3125 0.1875 0  1.34375 0.1875 0  1.375 0.1875 0  1.40625 0.1875 0  1.4375 0.1875 0  1.46875 0.1875 0  1.5 0.1875 0  0 0.21875 0  0.03125 0.21875 0  0.0625 0.21875 0  0.09375 0.21875 0  0.125 0.21875 0  0.15625 0.21875 0  0.1875 0.21875 0  0.21875 0.21875 0  0.25 0.21875 0  0.28125 0.21875 0  0.3125 0.21875 0  0.34375 0.21875 0  0.375 0.21875 0  0.40625 0.21875 0  0.4375 0.21875 0  0.46875 0.21875 0  0.5 0.21875 0  0.53125 0.21875 0  0.5625 0.21875 0  0.59375 0.21875 0  0.625 0.21875 0  0.65625 0.21875 0  0.6875 0.21875 0  0.71875 0.21875 0  0.75 0.21875 0  0.78125 0.21875 0  0.8125 0.21875 0  0.84375 0.21875 0  0.875 0.21875 0  0.90625 0.21875 0  0.9375 0.21875 0  0.96875 0.21875 0  1 0.21875 0  1.03125 0.21875 0  1.0625 0.21875 0  1.09375 0.21875 0  1.125 0.21875 0  1.15625 0.21875 0  1.1875 0.21875 0  1.21875 0.21875 0  1.25 0.21875 0  1.28125 0.21875 0  1.3125 0.21875 0  1.34375 0.21875 0  1.375 0.21875 0  1.40625 0.21875 0  1.4375 0.21875 0  1.46875 0.21875 0  1.5 0.21875 0  0 0.25 0  0.03125 0.25 0  0.0625 0.25 0  0.09375 0.25 0  0.125 0.25 0  0.15625 0.25 0  0.1875 0.25 0  0.21875 0.25 0  0.25 0.25 0  0.28125 0.25 0  0.3125 0.25 0  0.34375 0.25 0  0.375 0.25 0  0.40625 0.25 0  0.4375 0.25 0  0.46875 0.25 0  0.5 0.25 0  0.53125 0.25 0  0.5625 0.25 0  0.59375 0.25 0  0.625 0.25 0  0.65625 0.25 0  0.6875 0.25 0  0.71875 0.25 0  0.75 0.25 0  0.78125 0.25 0  0.8125 0.25 0  0.84375 0.25 0  0.875 0.25 0  0.90625 0.25 0  0.9375 0.25 0  0.96875 0.25 0  1 0.25 0  1.03125 0.25 0  1.0625 0.25 0  1.09375 0.25 0  1.125 0.25 0  1.15625 0.25 0  1.1875 0.25 0  1.21875 0.25 0  1.25 0.25 0  1.28125 0.25 0  1.3125 0.25 0  1.34375 0.25 0  1.375 0.25 0  1.40625 0.25 0  1.4375 0.25 0  1.46875 0.25 0  1.5 0.25 0  0 0.28125 0  0.03125 0.28125 0  0.0625 0.28125 0  0.09375 0.28125 0  0.125 0.28125 0  0.15625 0.28125 0  0.1875 0.28125 0  0.21875 0.28125 0  0.25 0.28125 0  0.28125 0.28125 0  0.3125 0.28125 0  0.34375 0.28125 0  0.375 0.28125 0  0.40625 0.28125 0  0.4375 0.28125 0  0.46875 0.28125 0  0.5 0.28125 0  0.53125 0.28125 0  0.5625 0.28125 0  0.59375 0.28125 0  0.625 0.28125 0  0.65625 0.28125 0  0.6875 0.28125 0  0.71875 0.28125 0  0.75 0.28125 0  0.78125 0.28125 0  0.8125 0.28125 0  0.84375 0.28125 0  0.875 0.28125 0  0.90625 0.28125 0  0.9375 0.28125 0  0.96875 0.28125 0  1 0.28125 0  1.03125 0.28125 0  1.0625 0.28125 0  1.09375 0.28125 0  1.125 0.28125 0  1.15625 0.28125 0  1.1875 0.28125 0  1.21875 0.28125 0  1.25 0.28125 0  1.28125 0.28125 0  1.3125 0.28125 0  1.34375 0.28125 0  1.375 0.28125 0  1.40625 0.28125 0  1.4375 0.28125 0  1.46875 0.28125 0  1.5 0.28125 0  0 0.3125 0  0.03125 0.3125 0  0.0625 0.3125 0  0.09375 0.3125 0  0.125 0.3125 0  0.15625 0.3125 0  0.1875 0.3125 0  0.21875 0.3125 0  0.25 0.3125 0  0.28125 0.3125 0  0.3125 0.3125 0  0.34375 0.3125 0  0.375 0.3125 0  0.40625 0.3125 0  0.4375 0.3125 0  0.46875 0.3125 0  0.5 0.3125 0  0.53125 0.3125 0  0.5625 0.3125 0  0.59375 0.3125 0  0.625 0.3125 0  0.65625 0.3125 0  0.6875 0.3125 0  0.71875 0.3125 0  0.75 0.3125 0  0.78125 0.3125 0  0.8125 0.3125 0  0.84375 0.3125 0  0.875 0.3125 0  0.90625 0.3125 0  0.9375 0.3125 0  0.96875 0.3125 0  1 0.3125 0  1.03125 0.3125 0  1.0625 0.3125 0  1.09375 0.3125 0  1.125 0.3125 0  1.15625 0.3125 0  1.1875 0.3125 0  1.21875 0.3125 0  1.25 0.3125 0  1.28125 0.3125 0  1.3125 0.3125 0  1.34375 0.3125 0  1.375 0.3125 0  1.40625 0.3125 0  1.4375 0.3125 0  1.46875 0.3125 0  1.5 0.3125 0  0 0.34375 0  0.03125 0.34375 0  0.0625 0.34375 0  0.09375 0.34375 0  0.125 0.34375 0  0.15625 0.34375 0  0.1875 0.34375 0  0.21875 0.34375 0  0.25 0.34375 0  0.28125 0.34375 0  0.3125 0.34375 0  0.34375 0.34375 0  0.375 0.34375 0  0.40625 0.34375 0  0.4375 0.34375 0  0.46875 0.34375 0  0.5 0.34375 0  0.53125 0.34375 0  0.5625 0.34375 0  0.59375 0.34375 0  0.625 0.34375 0  0.65625 0.34375 0  0.6875 0.34375 0  0.71875 0.34375 0  0.75 0.34375 0  0.78125 0.34375 0  0.8125 0.34375 0  0.84375 0.34375 0  0.875 0.34375 0  0.90625 0.34375 0  0.9375 0.34375 0  0.96875 0.34375 0  1 0.34375 0  1.03125 0.34375 0  1.0625 0.34375 0  1.09375 0.34375 0  1.125 0.34375 0  1.15625 0.34375 0  1.1875 0.34375 0  1.21875 0.34375 0  1.25 0.34375 0  1.28125 0.34375 0  1.3125 0.34375 0  1.34375 0.34375 0  1.375 0.34375 0  1
[...]
<PointData  Scalars="f_33"> 
<DataArray  type="Float64"  Name="f_33"  format="ascii">3.1305839840607207e-05  3.1578052611559045e-05  3.2391540759246919e-05  3.2787838708857244e-05  3.2766954913766791e-05  3.2487559837240269e-05  3.2061285598703802e-05  3.1550931285079375e-05  3.0988432109145132e-05  3.0388600004292674e-05  2.9757763770094106e-05  2.9098658494561171e-05  2.8412641455313560e-05  2.7700523797234684e-05  2.6962804017558806e-05  2.6199672871850473e-05  2.5410942160625246e-05  2.4595961680086992e-05  2.3753562677906155e-05  2.2882061552951723e-05  2.1979355352191643e-05  2.1043132252358277e-05  2.0071202354810640e-05  1.9061927830727423e-05  1.8014702401077996e-05  1.6930407566514177e-05  1.5811766327073225e-05  1.4663529153659887e-05  1.3492458753150003e-05  1.2307119785009192e-05  1.1117515153695013e-05  9.9346321941353290e-06  8.7699680465785297e-06  7.6350930230449526e-06  6.5412984962318998e-06  5.4993437938146068e-06  4.5193330630065656e-06  3.6106410745105283e-06  2.7820222015101088e-06  2.0412548833758558e-06  1.3952214824038784e-06  8.4572827100216837e-07  3.8884576621775246e-07  -1.0405622700651465e-08  -3.9694357770943706e-07  -9.7016603351841505e-07  -1.8445609683456597e-06  -3.1269518228760335e-06  -3.2552034046726710e-06  3.1429988006150092e-05  3.1385015752235506e-05  3.2381704120073418e-05  3.2832924033616916e-05  3.2786319069180400e-05  3.2468516048808525e-05  3.2017891156706305e-05  3.1496335696743811e-05  3.0931503098095348e-05  3.0334423352994986e-05  2.9708791692313250e-05  2.9055844589884174e-05  2.8376188875958179e-05  2.7670291848295328e-05  2.6938504984179691e-05  2.6180960123060683e-05  2.5397443593303163e-05  2.4587281461353329e-05  2.3749259964936560e-05  2.2881610999403694e-05  2.1982095830090784e-05  2.1048214112159395e-05  2.0077547086627016e-05  1.9068214701590509e-05  1.8019392773149025e-05  1.6931809190075634e-05  1.5808129342049002e-05  1.4653156738375436e-05  1.3473811753473974e-05  1.2278897346096721e-05  1.1078700803004127e-05  9.8845038807341096e-06  8.7080784799820941e-06  7.5612314658687202e-06  6.4554476012933625e-06  5.4016448518457068e-06  4.4100773909743867e-06  3.4903049738270375e-06  2.6513994656563936e-06  1.9017201674980722e-06  1.2493394791726725e-06  6.9801710905362740e-07  2.4724230508865849e-07  -1.3502248225893162e-07  -4.8877945781381719e-07  -1.0167946214129049e-06  -1.8839598147720902e-06  -3.3246677393251477e-06  -3.3760843940646969e-06  3.1594969429515940e-05  3.1432045377574968e-05  3.2577774733882858e-05  3.3036984584017235e-05  3.2944274768121506e-05  3.2550931939569438e-05  3.2043510014606317e-05  3.1483794159597001e-05  3.0897074142944252e-05  3.0289527949327716e-05  2.9660511128003587e-05  2.9008284159947523e-05  2.8331649787724021e-05  2.7630060226721320e-05  2.6903319012668939e-05  2.6151268676685213e-05  2.5373534127083528e-05  2.4569318173696755e-05  2.3737252073254007e-05  2.2875324863249752e-05  2.1980929299717395e-05  2.1051061836394053e-05  2.0082695429102300e-05  1.9073307354920095e-05  1.8021497571763945e-05  1.6927592693666277e-05  1.5794115558283738e-05  1.4626021774645169e-05  1.3430657377606884e-05  1.2217455983202540e-05  1.0997446858928390e-05  9.7826718349980230e-06  8.5856089885865216e-06  7.4186783668121753e-06  6.2938840087679773e-06  5.2226047722690394e-06  4.2155795061020538e-06  3.2829969772655009e-06  2.4349332282851740e-06  1.6813412532110187e-06  1.0329981687257474e-06  4.9703688208284938e-07  7.7704997405180257e-08  -2.5738628888337541e-07  -5.4837970697719352e-07  -1.0393197038757266e-06  -1.9144447513429273e-06  -3.4591231605101601e-06  -3.4098054170725751e-06  3.1740158812564598e-05  3.1575794829721227e-05  3.2851290207786575e-05  3.3322580703230365e-05  3.3205061422013476e-05  3.2740764245156514e-05  3.2169202415199886e-05  3.1556076358259465e-05  3.0931751990418874e-05  3.0299862922642192e-05  2.9656311347659878e-05  2.8996254352339139e-05  2.8316233233085072e-05  2.7614204910818375e-05  2.6889039321938226e-05  2.6140016969857950e-05  2.5366417425143839e-05  2.4567186979867008e-05  2.3740677278883502e-05  2.2884477725731637e-05  2.1995390594064486e-05  2.1069606292242646e-05  2.0103117845572097e-05  1.9092364518998712e-05  1.8035023288544540e-05  1.6930799573012877e-05  1.5782040178932507e-05  1.4594024043651811e-05  1.3374871038278334e-05  1.2135109170062779e-05  1.0887016021714404e-05  9.6438792468974598e-06  8.4193082153114700e-06  7.2266881915198722e-06  6.0788327779224866e-06  4.9878410474248720e-06  3.9651989751499214e-06  3.0220300824883591e-06  2.1697302123568140e-06  1.4201348118216960e-06  7.8649689425537870e-07  2.7849540423177004e-07  -9.8475364776023618e-08  -3.8043958421656791e-07  -6.1972905363366155e-07  -1.0871337942257170e-06  -1.9903647969541049e-06  -3.5951550743351567e-06  -3.5446939549690150e-06  3.1960715020753962e-05  3.1815626078223505e-05  3.3162359027270497e-05  3.3650560033731972e-05  3.3520826071129677e-05  3.3002733314510196e-05  3.2372982522466734e-05  3.1703399834970503e-05  3.1034199893274013e-05  3.0368903133938065e-05  2.9702049282850896e-05  2.9026529451556652e-05  2.8336857625019085e-05  2.7629411220270298e-05  2.6901944683998981e-05  2.6152996900491745e-05  2.5381358089370886e-05  2.4585605511404657e-05  2.3763704656282634e-05  2.2912707457281119e-05  2.2028618049420924e-05  2.1106518789237363e-05  2.0141034086186553e-05  1.9127142462477618e-05  1.8061233793773243e-05  1.6942190875853942e-05  1.5772219112793323e-05  1.4557201980805097e-05  1.3306505593465163e-05  1.2032320177890625e-05  1.0748735586624848e-05  9.4707717922694871e-06  8.2135429678481636e-06  6.9916594651335442e-06  5.8189125147651907e-06  4.7082261707890162e-06  3.6718924525669586e-06  2.7219676959241279e-06  1.8710269663826888e-06  1.1323358195363588e-06  5.2057566383483997e-07  4.6029196491774297e-08  -2.8761178674769863e-07  -5.2283452616714373e-07  -7.2436446788893584e-07  -1.1804704026519697e-06  -2.1061991627372833e-06  -3.7473170173734762e-06  -3.7072537937091221e-06  3.2249270833173836e-05  3.2118740795272692e-05  3.3502090296064265e-05  3.4005401332494050e-05  3.3866764651727493e-05  3.3309604012176649e-05  3.2630773981956858e-05  3.1909065735231341e-05  3.1194521695990234e-05  3.0492187852705954e-05  2.9797143241449914e-05  2.9101077738405697e-05  2.8397084623181600e-05  2.7680186446727743e-05  2.6947062516858265e-05  2.6195472213674168e-05  2.5423663243271458e-05  2.4629797228793205e-05  2.3811403730128725e-05  2.2964909442773780e-05  2.2085345732726359e-05  2.1166384112839870e-05  2.0200847063337248e-05  1.9181753463042200e-05  1.8103774030558153e-05  1.6964758854339185e-05  1.5766887877649554e-05  1.4517089196764392e-05  1.3226633768737813e-05  1.1910095092294519e-05  1.0584017080818211e-05  9.2656280915975244e-06  7.9718331728000210e-06  6.7185848208062220e-06  5.5206403868971577e-06  4.3916446437781699e-06  3.3445099933222520e-06  2.3919309498398792e-06  1.5471790900085876e-06  8.2416131332029729e-07  2.3776908728349416e-07  -2.0269629953703329e-07  -4.9682041442884663e-07  -6.9376485503601089e-07  -8.6810708258190259e-07  -1.3180251005517402e-06  -2.2598342894249998e-06  -3.9238054914644995e-06  -3.8943624878374830e-06  3.2582588120130179e-05  3.2461304418637921e-05  3.3864363791375550e-05  3.4376781567747496e-05  3.4229177420044375e-05  3.3642323571971125e-05  3.2922896826477238e-05  3.2156130350366848e-05  3.1399544818981002e-05  3.0660644558880670e-05  2.9936070750479612e-05  2.9217171580827747e-05  2.8496263240074568e-05  2.7767365830846543e-05  2.7026261138764853e-05  2.6270000999066221e-05  2.5496323806871102e-05  2.4703003813235603e-05  2.3887159360567382e-05  2.3044577181217617e-05  2.2169194380270496e-05  2.1252970722393512e-05  2.0286419413666898e-05  1.9259964015404057e-05  1.8165991506887247e-05  1.7001074457802535e-05  1.5767602288268107e-05  1.4474233067856095e-05  1.3135078179318856e-05  1.1768022714335532e-05  1.0392786284687985e-05  9.0292314393126586e-06  7.6961932503972745e-06  6.4108829372078519e-06  5.1887927531458892e-06  4.0439641565311860e-06  2.9895329473067777e-06  2.0383438142692061e-06  1.2037389203318588e-06  4.9945757336611579e-07  -6.0371147651569013e-08  -4.6836479519135144e-07  -7.2780216415344241e-07  -8.9361365459775791e-07  -1.0473546318712850e-06  -1.4927080470205695e-06  -2.4450708645253289e-06  -4.1234385210040425e-06  -4.1015985201764611e-06  3.2939356360413635e-05  3.2823990524717302e-05  3.4238259338699183e-05  3.4754630103576920e-05  3.4597679378725587e-05  3.3986859036020014e-05  3.3234071940150642e-05  3.2429539477692937e-05  3.1635977838007754e-05  3.0863612276533848e-05  3.0110866361331150e-05  2.9369307314307404e-05  2.8630964898626313e-05  2.7889195947322936e-05  2.7139098381659501e-05  2.6377135935075044e-05  2.5600621243872350e-05  2.4807026101322165e-05  2.3993156642089936e-05  2.3154235226490801e-05  2.2283063304936583e-05  2.1369603307693745e-05  2.0401445614798909e-05  1.9365558535230275e-05  1.8251247217028687e-05  1.7053492068314305e-05  1.5775322695831547e-05  1.4428209031572269e-05  1.3030452341675058e-05  1.1604441236397862e-05  1.0173841387163479e-05  8.7614421748415480e-06  7.3879106544244566e-06  6.0713669896725209e-06  4.8275611177316243e-06  3.6704055392139626e-06  2.6127153828306053e-06  1.6669165609585194e-06  8.4580797115677968e-07  1.6230609305176652e-07  -3.7084421334626123e-07  -7.4855808629865081e-07  -9.7760135102552883e-07  -1.1174771511658242e-06  -1.2545243977442479e-06  -1.6954726544388522e-06  -2.6543287499704280e-06  -4.3419218959876135e-06  -4.3251091285124231e-06  3.3302068851149771e-05  3.3190672858921885e-05  3.4611600680006140e-05  3.5128642445156806e-05  3.4962373648165287e-05  3.4331624883362482e-05  3.3551575415007164e-05  3.2715977205887397e-05  3.1891194260641275e-05  3.1089911144911134e-05  3.0312161490182951e-05  2.9550027173173718e-05  2.8795540568689479e-05  2.8041651227459740e-05  2.7282950692709076e-05  2.6515423428166803e-05  2.5736042747077531e-05  2.4942080794026311e-05  2.4130186324573088e-05  2.3295191625635759e-05  2.2428840513904427e-05  2.1518866122408745e-05  2.0549189791545458e-05  1.9502110747596922e-05  1.8362649528729357e-05  1.7123756261616886e-05  1.5789880770383494e-05  1.4377050242636110e-05  1.2909716995248581e-05  1.1416258209987931e-05  9.9249959470857363e-06  8.4616478174910357e-06  7.0482453041288546e-06  5.7031297791083408e-06  4.4415775676758218e-06  3.2766881693302099e-06  2.2203440995392700e-06  1.2840022687526261e-06  4.7941589214636440e-07  -1.8176033923795180e-07  -6.8846796713686084e-07  -1.0379327674752895e-06  -1.2399412607386220e-06  -1.3574841752231356e-06  -1.4801677347048617e-06  -1.9164264672705961e-06  -2.8789252361259573e-06  -4.5723926638703414e-06  -4.5588435456675883e-06  3.3655956887387932e-05  3.3547369112686429e-05  3.4972424584290391e-05  3.5488392507323989e-05  3.5313381352457756e-05  3.4666063293309277e-05  3.3863976234799783e-05  3.3003357382747713e-05  3.2153208731730571e-05  3.1328196360800953e-05  3.0529699166905949e-05  2.9750407922853141e-05  2.8982489356095205e-05  2.8218648654394374e-05  2.7453084502300613e-05  2.6681365684181149e-05  2.5900171919259379e-05  2.5106643530013877e-05  2.4297443036764530e-05  2.3467272172906792e-05  2.2607072802525322e-05  2.1702258201198266e-05  2.0732208593304258e-05  1.9672795540210480e-05  1.8502834964647614e-05  1.7212594823322681e-05  1.5809386183904575e-05  1.4316674356997608e-05  1.2767891219398818e-05  1.1199103662087173e-05  9.6436750695161520e-06  8.1296946970076860e-06  6.6795553073473684e-06  5.3107426469361702e-06  4.0371079089028373e-06  2.8701757813514342e-06  1.8203128222070821e-06  8.9756477258074802e-07  1.1230951736455311e-07  -5.2527327031200426e-07  -1.0058613631100445e-06  -1.3287892762846814e-06  -1.5063284493003592e-06  -1.6040743777336069e-06  -1.7138786011915247e-06  -2.1451226144218310e-06  -3.1092851082009033e-06  -4.8063806217351468e-06  -4.7949105541326788e-06  3.3988215360080572e-05  3.3881725252158577e-05  3.5309487882571837e-05  3.5823671163585455e-05  3.5640939474145110e-05  3.4980104520795075e-05  3.4160565026556262e-05  3.3280363509288297e-05  3.2410448265798602e-05  3.1567009598148547e-05  3.0752523699720071e-05  2.9960268143349228e-05  2.9182593051289649e-05  2.8412056312708892e-05  2.7642526812823685e-05  2.6869174713666968e-05  2.6088365768316868e-05  2.5297087304334079e-05  2.4492134920853863e-05  2.3668356630711427e-05  2.2816401871356484e-05  2.1919574119582714e-05  2.0951835455060659e-05  1.9880058450000983e-05  1.8673613194739020e-05  1.7319078281032862e-05  1.5829379642060729e-05  1.4240252846794533e-05  1.2598037104935149e-05  1.0948036965440777e-05  9.3281810819234186e-06  7.7674388441381208e-06  6.2868851579469533e-06  4.9017182887336807e-06  3.6233115734100191e-06  2.4609129302009049e-06  1.4229376166401253e-06  5.1776983757451545e-07  -2.4570567468649995e-07  -8.5878337385485008e-07  -1.3137368081354926e-06  -1.6116873579610783e-06  -1.7668644861088676e-06  -1.8467706844436333e-06  -1.9447993323483179e-06  -2.3708251512179285e-06  -3.3352908509150087e-06  -5.0344712191975388e-06  -5.0242869689831881e-06  3.4287619471971426e-05  3.4182776058504642e-05  3.5612454750886718e-05  3.6124777233895525e-05  3.5935622310870235e-05  3.5264110262573743e-05  3.4431176328485500e-05  3.3536217600859903e-05  3.2651644306150292e-05  3.1794813075973155e-05  3.0969091169688899e-05  3.0168285046550680e-05  2.9384955758678897e-05  2.8611589551767517e-05  2.7841781693863823e-05  2.7070311104891919e-05  2.6293157322625261e-05  2.5507024044868268e-05  2.4708807785161946e-05  2.3893636098010765e-05  2.3052676451054919e-05  2.2167828886469268e-05  2.1207220623194551e-05  2.0124978146111856e-05  1.8875281113856780e-05  1.7439531909725541e-05  1.5841680551862314e-05  1.4137800797677807e-05  1.2392062690886546e-05  1.0659393639069441e-05  8.9800658374777006e-06  7.3811353837763765e-06  5.8800461512406233e-06  4.4881472861873443e-06  3.2134291826289345e-06  2.0624202181914288e-06  1.0414283291024779e-06  1.5718565961120513e-07  -5.8280691148453157e-07  -1.1711295577186313e-06  -1.6013755234960816e-06  -1.8760709333494248e-06  -2.0109145890080188e-06  -2.0747639136251610e-06  -2.1620525084708556e-06  -2.5828645954437723e-06  -3.5467366358804504e-06  -5.2469471037362749e-06  -5.2375218677050127e-06  3.4544405648371440e-05  3.4440899428960952e-05  3.5872049236680276e-05  3.6382788916311075e-05  3.6188621725841762e-05  3.5509044198917274e-05  3.4666267502397779e-05  3.3760722690090553e-05  3.2865932951482756e-05  3.2000154156233628e-05  3.1167481948946038e-05  3.0362201658620092e-05  2.9577123012347407e-05  2.8804754179711040e-05  2.8038517530141949e-05  2.7272864722697329e-05  2.6503344096917338e-05  2.5726206115948596e-05  2.4938179243602360e-05  2.4134437304275012e-05  2.3307597189830612e-05  2.2439402256144226e-05  2.1493501235814067e-05  2.0405787327733634e-05  1.9104986734670750e-05  1.7565659551076100e-05  1.5833220377569521e-05  1.3996934977395995e-05  1.2143522927568261e-05  1.0334686574269605e-05  8.6080474468903053e-06  6.9846861182357463e-06  5.4759573393319108e-06  4.0881825708625677e-06  2.8255828930991861e-06  1.6919990910645535e-06  6.9185256241431322e-07  -1.6948665426838822e-07  -8.8559053066645632e-07  -1.4499993271212293e-06  -1.8572721618451433e-06  -2.1109445149001079e-06  -2.2277499092657519e-06  -2.2774648381475594e-06  -2.3551971692135193e-06  -2.7710661361546559e-06  -3.7338244988965787e-06  -5.4343781798406020e-06  -5.4253769112708875e-06  3.4750305623100725e-05  3.4647894422857984e-05  3.6080243463079328e-05  3.6589846006916985e-05  3.6392067472226550e-05  3.5706768572559369e-05  3.4857187598564065e-05  3.3944535259335863e-05  3.3043175572735158e-05  3.2172053278929855e-05  3.1335857580418920e-05  3.0529310827830941e-05  2.9745515865845708e-05  2.8977119845608271e-05  2.8217537045449166e-05  2.7461066520697747e-05  2.6702933305656391e-05  2.5938910568615719e-05  2.5165157991726873e-05  2.4376284941253777e-05  2.3566664023377592e-05  2.2719141200855062e-05  2.1798359823883234e-05  2.0713834694650617e-05  1.9352645805950546e-05  1.7682088788758570e-05  1.5786733580295651e-05  1.3807396837690799e-05  1.1854533606039616e-05  9.9875352654167521e-06  8.2334309771186514e-06  6.6031460046861763e-06  5.1004901616677194e-06  3.7266881143167862e-06  2.4826686213745761e-06  1.3701967475255680e-06  3.9238750881012078e-07  -4.4625008703688337e-07  -1.1399326223014114e-06  -1.6827789798190464e-06  -2.0699503531502707e-06  -2.3056282654174999e-06  -2.4072160977612394e-06  -2.4450741757287453e-06  -2.5147201327919703e-06  -2.9262161410862153e-06  -3.8876630236321164e-06  -5.5881639618012230e-06  -5.5793962608594884e-06  3.4898665541407823e-05  3.4797130157596560e-05  3.6230477210620009e-05  3.6739442924570632e-05  3.6539370968864185e-05  3.5850411738595926e-05  3.4996568859825444e-05  3.4079603997823263e-05  3.3174481787323623e-05  3.2300645903233722e-05  3.1463242892647795e-05  3.0657369435692102e-05  2.9876434922744659e-05  2.9113318661577354e-05  2.8361599786612234e-05  2.7615671178550284e-05  2.6870735265249332e-05  2.6122385161438355e-05  2.5366162377783183e-05  2.4595766945482607e-05  2.3805957003103225e-05  2.2980534740271069e-05  2.2095207729338835e-05  2.1022597646056528e-05  1.9592479742499617e-05  1.7767120691421674e-05  1.5689602551917397e-05  1.3574394543530343e-05  1.1548984014690286e-05  9.6531840152630057e-06  7.8953008064029168e-06  6.2745773135519794e-06  4.7882632279699545e-06  3.4339794513780407e-06  2.2106837511528114e-06  1.1190759190233269e-06  1.6170018269674865e-07  -6.5726001157506627e-07  -1.3322588159473455e-06  -1.8576586293054991e-06  -2.2289190923624041e-06  -2.4505772718617740e-06  -2.5404251028323768e-06  -2.5691634455848544e-06  -2.6325377766094966e-06  -3.0405292399721844e-06  -4.0007392816455401e-06  -5.7010214064271054e-06  -5.6924060651604723e-06  3.4984598132959343e-05  3.4883719415545438e-05  3.6317881164280198e-05  3.6826710082575438e-05  3.6625560208025269e-05  3.5934750677204647e-05  3.5078766776334069e-05  3.4159695094073103e-05  3.3252864123379398e-05  3.2378020144612189e-05  3.1540603167207356e-05  3.0735968913239717e-05  2.9957768237338505e-05  2.9199104880601172e-05  2.8453780314508291e-05  2.7716419438416965e-05  2.6982460535555804e-05  2.6247717184689282e-05  2.5507622790087362e-05  2.4755605968690661e-05  2.3984935748127248e-05  2.3179788895771354e-05  2.2332968847310534e-05  2.1269382769872021e-05  1.9775718947835510e-05  1.7810902651484632e-05  1.5561826817501281e-05  1.3345307060713887e-05  1.1289614445548762e-05  9.3950889636560363e-06  7.6502907378542251e-06  6.0466013788697533e-06  4.5782240792246741e-06  3.2415446656335772e-06  2.0350163960265890e-06  9.5916188610137553e-07  1.6496547434925203e-08  -7.8877567550941909e-07  -1.4511010930502214e-06  -1.9648827605461158e-06  -2.3256844231264793e-06  -2.5382032927158201e-06  -2.6204245144662553e-06  -2.6432262473977307e-06  -2.7024664163016946e-06  -3.1080759860264832e-06  -4.0673344407006991e-06  -5.7674001871994805e-06  -5.7589325571333233e-06  3.5005124064740843e-05  3.4904675271773235e-05  3.6339468522909785e-05  3.6848649567627135e-05  3.6647563184603136e-05  3.5956546842399507e-05  3.5100264407832054e-05  3.4180896011580972e-05  3.3273890091236791e-05  3.2399084370223711e-05  3.1562016064767071e-05  3.0758128586098677e-05  2.9981161456376372e-05  2.9224305962698709e-05  2.8481456920219722e-05  2.7747344918346801e-05  2.7017534396072108e-05  2.6287992162485545e-05  2.5554240651077038e-05  2.4810045768115349e-05  2.4047454277361020e-05  2.3252724531018650e-05  2.2427135745259042e-05  2.1377709616800835e-05  1.9850735997591690e-05  1.7836120595436086e-05  1.5507029621390050e-05  1.3235212577853457e-05  1.1179486589218499e-05  9.2933047276185665e-06  7.5582903022278043e-06  5.9637283887919532e-06  4.5036872931174184e-06  3.1746086327382977e-06  1.9750155864126136e-06  9.0550116470938802e-07  -3.1350066466035993e-08  -8.3127412538389739e-07  -1.4886769598534456e-06  -1.997949608