<?xml version="1.0"?>
<VTKFile type="UnstructuredGrid"  version="0.1"  >
<UnstructuredGrid>
<Piece  NumberOfPoints="1617" NumberOfCells="3072">
<Points>
<DataArray  type="Float64"  NumberOfComponents="3"  format="ascii">0 0 0  0.03125 0 0  0.0625 0 0  0.09375 0 0  0.125 0 0  0.15625 0 0  0.1875 0 0  0.21875 0 0  0.25 0 0  0.28125 0 0  0.3125 0 0  0.34375 0 0  0.375 0 0  0.40625 0 0  0.4375 0 0  0.46875 0 0  0.5 0 0  0.53125 0 0  0.5625 0 0  0.59375 0 0  0.625 0 0  0.65625 0 0  0.6875 0 0  0.71875 0 0  0.75 0 0  0.78125 0 0  0.8125 0 0  0.84375 0 0  0.875 0 0  0.90625 0 0  0.9375 0 0  0.96875 0 0  1 0 0  1.03125 0 0  1.0625 0 0  1.09375 0 0  1.125 0 0  1.15625 0 0  1.1875 0 0  1.21875 0 0  1.25 0 0  1.28125 0 0  1.3125 0 0  1.34375 0 0  1.375 0 0  1.40625 0 0  1.4375 0 0  1.46875 0 0  1.5 0 0  0 0.03125 0  0.03125 0.03125 0  0.0625 0.03125 0  0.09375 0.03125 0  0.125 0.03125 0  0.15625 0.03125 0  0.1875 0.03125 0  0.21875 0.03125 0  0.25 0.03125 0  0.28125 0.03125 0  0.3125 0.03125 0  0.34375 0.03125 0  0.375 0.03125 0  0.40625 0.03125 0  0.4375 0.03125 0  0.46875 0.03125 0  0.5 0.03125 0  0.53125 0.03125 0  0.5625 0.03125 0  0.59375 0.03125 0  0.625 0.03125 0  0.65625 0.03125 0  0.6875 0.03125 0  0.71875 0.03125 0  0.75 0.03125 0  0.78125 0.03125 0  0.8125 0.03125 0  0.84375 0.03125 0  0.875 0.03125 0  0.90625 0.03125 0  0.9375 0.03125 0  0.96875 0.03125 0  1 0.03125 0  1.03125 0.03125 0  1.0625 0.03125 0  1.09375 0.03125 0  1.125 0.03125 0  1.15625 0.03125 0  1.1875 0.03125 0  1.21875 0.03125 0  1.25 0.03125 0  1.28125 0.03125 0  1.3125 0.03125 0  1.34375 0.03125 0  1.375 0.03125 0  1.40625 0.03125 0  1.4375 0.03125 0  1.46875 0.03125 0  1.5 0.03125 0  0 0.0625 0  0.03125 0.0625 0  0.0625 0.0625 0  0.09375 0.0625 0  0.125 0.0625 0  0.15625 0.0625 0  0.1875 0.0625 0  0.21875 0.0625 0  0.25 0.0625 0  0.28125 0.0625 0  0.3125 0.0625 0  0.34375 0.0625 0  0.375 0.0625 0  0.40625 0.0625 0  0.4375 0.0625 0  0.46875 0.0625 0  0.5 0.0625 0  0.53125 0.0625 0  0.5625 0.0625 0  0.59375 0.0625 0  0.625 0.0625 0  0.65625 0.0625 0  0.6875 0.0625 0  0.71875 0.0625 0  0.75 0.0625 0  0.78125 0.0625 0  0.8125 0.0625 0  0.84375 0.0625 0  0.875 0.0625 0  0.90625 0.0625 0  0.9375 0.0625 0  0.96875 0.0625 0  1 0.0625 0  1.03125 0.0625 0  1.0625 0.0625 0  1.09375 0.0625 0  1.125 0.0625 0  1.15625 0.0625 0  1.1875 0.0625 0  1.21875 0.0625 0  1.25 0.0625 0  1.28125 0.0625 0  1.3125 0.0625 0  1.34375 0.0625 0  1.375 0.0625 0  1.40625 0.0625 0  1.4375 0.0625 0  1.46875 0.0625 0  1.5 0.0625 0  0 0.09375 0  0.03125 0.09375 0  0.0625 0.09375 0  0.09375 0.09375 0  0.125 0.09375 0  0.15625 0.09375 0  0.1875 0.09375 0  0.21875 0.09375 0  0.25 0.09375 0  0.28125 0.09375 0  0.3125 0.09375 0  0.34375 0.09375 0  0.375 0.09375 0  0.40625 0.09375 0  0.4375 0.09375 0  0.46875 0.09375 0  0.5 0.09375 0  0.53125 0.09375 0  0.5625 0.09375 0  0.59375 0.09375 0  0.625 0.09375 0  0.65625 0.09375 0  0.6875 0.09375 0  0.71875 0.09375 0  0.75 0.09375 0  0.78125 0.09375 0  0.8125 0.09375 0  0.84375 0.09375 0  0.875 0.09375 0  0.90625 0.09375 0  0.9375 0.09375 0  0.96875 0.09375 0  1 0.09375 0  1.03125 0.09375 0  1.0625 0.09375 0  1.09375 0.09375 0  1.125 0.09375 0  1.15625 0.09375 0  1.1875 0.09375 0  1.21875 0.09375 0  1.25 0.09375 0  1.28125 0.09375 0  1.3125 0.09375 0  1.34375 0.09375 0  1.375 0.09375 0  1.40625 0.09375 0  1.4375 0.09375 0  1.46875 0.09375 0  1.5 0.09375 0  0 0.125 0  0.03125 0.125 0  0.0625 0.125 0  0.09375 0.125 0  0.125 0.125 0  0.15625 0.125 0  0.1875 0.125 0  0.21875 0.125 0  0.25 0.125 0  0.28125 0.125 0  0.3125 0.125 0  0.34375 0.125 0  0.375 0.125 0  0.40625 0.125 0  0.4375 0.125 0  0.46875 0.125 0  0.5 0.125 0  0.53125 0.125 0  0.5625 0.125 0  0.59375 0.125 0  0.625 0.125 0  0.65625 0.125 0  0.6875 0.125 0  0.71875 0.125 0  0.75 0.125 0  0.78125 0.125 0  0.8125 0.125 0  0.84375 0.125 0  0.875 0.125 0  0.90625 0.125 0  0.9375 0.125 0  0.96875 0.125 0  1 0.125 0  1.03125 0.125 0  1.0625 0.125 0  1.09375 0.125 0  1.125 0.125 0  1.15625 0.125 0  1.1875 0.125 0  1.21875 0.125 0  1.25 0.125 0  1.28125 0.125 0  1.3125 0.125 0  1.34375 0.125 0  1.375 0.125 0  1.40625 0.125 0  1.4375 0.125 0  1.46875 0.125 0  1.5 0.125 0  0 0.15625 0  0.03125 0.15625 0  0.0625 0.15625 0  0.09375 0.15625 0  0.125 0.15625 0  0.15625 0.15625 0  0.1875 0.15625 0  0.21875 0.15625 0  0.25 0.15625 0  0.28125 0.15625 0  0.3125 0.15625 0  0.34375 0.15625 0  0.375 0.15625 0  0.40625 0.15625 0  0.4375 0.15625 0  0.46875 0.15625 0  0.5 0.15625 0  0.53125 0.15625 0  0.5625 0.15625 0  0.59375 0.15625 0  0.625 0.15625 0  0.65625 0.15625 0  0.6875 0.15625 0  0.71875 0.15625 0  0.75 0.15625 0  0.78125 0.15625 0  0.8125 0.15625 0  0.84375 0.15625 0  0.875 0.15625 0  0.90625 0.15625 0  0.9375 0.15625 0  0.96875 0.15625 0  1 0.15625 0  1.03125 0.15625 0  1.0625 0.15625 0  1.09375 0.15625 0  1.125 0.15625 0  1.15625 0.15625 0  1.1875 0.15625 0  1.21875 0.15625 0  1.25 0.15625 0  1.28125 0.15625 0  1.3125 0.15625 0  1.34375 0.15625 0  1.375 0.15625 0  1.40625 0.15625 0  1.4375 0.15625 0  1.46875 0.15625 0  1.5 0.15625 0  0 0.1875 0  0.03125 0.1875 0  0.0625 0.1875 0  0.09375 0.1875 0  0.125 0.1875 0  0.15625 0.1875 0  0.1875 0.1875 0  0.21875 0.1875 0  0.25 0.1875 0  0.28125 0.1875 0  0.3125 0.1875 0  0.34375 0.1875 0  0.375 0.1875 0  0.40625 0.1875 0  0.4375 0.1875 0  0.46875 0.1875 0  0.5 0.1875 0  0.53125 0.1875 0  0.5625 0.1875 0  0.59375 0.1875 0  0.625 0.1875 0  0.65625 0.1875 0  0.6875 0.1875 0  0.71875 0.1875 0  0.75 0.1875 0  0.78125 0.1875 0  0.8125 0.1875 0  0.84375 0.1875 0  0.875 0.1875 0  0.90625 0.1875 0  0.9375 0.1875 0  0.96875 0.1875 0  1 0.1875 0  1.03125 0.1875 0  1.0625 0.1875 0  1.09375 0.1875 0  1.125 0.1875 0  1.15625 0.1875 0  1.1875 0.1875 0  1.21875 0.1875 0  1.25 0.1875 0  1.28125 0.1875 0  1.3125 0.1875 0  1.34375 0.1875 0  1.375 0.1875 0  1.40625 0.1875 0  1.4375 0.1875 0  1.46875 0.1875 0  1.5 0.1875 0  0 0.21875 0  0.03125 0.21875 0  0.0625 0.21875 0  0.09375 0.21875 0  0.125 0.21875 0  0.15625 0.21875 0  0.1875 0.21875 0  0.21875 0.21875 0  0.25 0.21875 0  0.28125 0.21875 0  0.3125 0.21875 0  0.34375 0.21875 0  0.375 0.21875 0  0.40625 0.21875 0  0.4375 0.21875 0  0.46875 0.21875 0  0.5 0.21875 0  0.53125 0.21875 0  0.5625 0.21875 0  0.59375 0.21875 0  0.625 0.21875 0  0.65625 0.21875 0  0.6875 0.21875 0  0.71875 0.21875 0  0.75 0.21875 0  0.78125 0.21875 0  0.8125 0.21875 0  0.84375 0.21875 0  0.875 0.21875 0  0.90625 0.21875 0  0.9375 0.21875 0  0.96875 0.21875 0  1 0.21875 0  1.03125 0.21875 0  1.0625 0.21875 0  1.09375 0.21875 0  1.125 0.21875 0  1.15625 0.21875 0  1.1875 0.21875 0  1.21875 0.21875 0  1.25 0.21875 0  1.28125 0.21875 0  1.3125 0.21875 0  1.34375 0.21875 0  1.375 0.21875 0  1.40625 0.21875 0  1.4375 0.21875 0  1.46875 0.21875 0  1.5 0.21875 0  0 0.25 0  0.03125 0.25 0  0.0625 0.25 0  0.09375 0.25 0  0.125 0.25 0  0.15625 0.25 0  0.1875 0.25 0  0.21875 0.25 0  0.25 0.25 0  0.28125 0.25 0  0.3125 0.25 0  0.34375 0.25 0  0.375 0.25 0  0.40625 0.25 0  0.4375 0.25 0  0.46875 0.25 0  0.5 0.25 0  0.53125 0.25 0  0.5625 0.25 0  0.59375 0.25 0  0.625 0.25 0  0.65625 0.25 0  0.6875 0.25 0  0.71875 0.25 0  0.75 0.25 0  0.78125 0.25 0  0.8125 0.25 0  0.84375 0.25 0  0.875 0.25 0  0.90625 0.25 0  0.9375 0.25 0  0.96875 0.25 0  1 0.25 0  1.03125 0.25 0  1.0625 0.25 0  1.09375 0.25 0  1.125 0.25 0  1.15625 0.25 0  1.1875 0.25 0  1.21875 0.25 0  1.25 0.25 0  1.28125 0.25 0  1.3125 0.25 0  1.34375 0.25 0  1.375 0.25 0  1.40625 0.25 0  1.4375 0.25 0  1.46875 0.25 0  1.5 0.25 0  0 0.28125 0  0.03125 0.28125 0  0.0625 0.28125 0  0.09375 0.28125 0  0.125 0.28125 0  0.15625 0.28125 0  0.1875 0.28125 0  0.21875 0.28125 0  0.25 0.28125 0  0.28125 0.28125 0  0.3125 0.28125 0  0.34375 0.28125 0  0.375 0.28125 0  0.40625 0.28125 0  0.4375 0.28125 0  0.46875 0.28125 0  0.5 0.28125 0  0.53125 0.28125 0  0.5625 0.28125 0  0.59375 0.28125 0  0.625 0.28125 0  0.65625 0.28125 0  0.6875 0.28125 0  0.71875 0.28125 0  0.75 0.28125 0  0.78125 0.28125 0  0.8125 0.28125 0  0.84375 0.28125 0  0.875 0.28125 0  0.90625 0.28125 0  0.9375 0.28125 0  0.96875 0.28125 0  1 0.28125 0  1.03125 0.28125 0  1.0625 0.28125 0  1.09375 0.28125 0  1.125 0.28125 0  1.15625 0.28125 0  1.1875 0.28125 0  1.21875 0.28125 0  1.25 0.28125 0  1.28125 0.28125 0  1.3125 0.28125 0  1.34375 0.28125 0  1.375 0.28125 0  1.40625 0.28125 0  1.4375 0.28125 0  1.46875 0.28125 0  1.5 0.28125 0  0 0.3125 0  0.03125 0.3125 0  0.0625 0.3125 0  0.09375 0.3125 0  0.125 0.3125 0  0.15625 0.3125 0  0.1875 0.3125 0  0.21875 0.3125 0  0.25 0.3125 0  0.28125 0.3125 0  0.3125 0.3125 0  0.34375 0.3125 0  0.375 0.3125 0  0.40625 0.3125 0  0.4375 0.3125 0  0.46875 0.3125 0  0.5 0.3125 0  0.53125 0.3125 0  0.5625 0.3125 0  0.59375 0.3125 0  0.625 0.3125 0  0.65625 0.3125 0  0.6875 0.3125 0  0.71875 0.3125 0  0.75 0.3125 0  0.78125 0.3125 0  0.8125 0.3125 0  0.84375 0.3125 0  0.875 0.3125 0  0.90625 0.3125 0  0.9375 0.3125 0  0.96875 0.3125 0  1 0.3125 0  1.03125 0.3125 0  1.0625 0.3125 0  1.09375 0.3125 0  1.125 0.3125 0  1.15625 0.3125 0  1.1875 0.3125 0  1.21875 0.3125 0  1.25 0.3125 0  1.28125 0.3125 0  1.3125 0.3125 0  1.34375 0.3125 0  1.375 0.3125 0  1.40625 0.3125 0  1.4375 0.3125 0  1.46875 0.3125 0  1.5 0.3125 0  0 0.34375 0  0.03125 0.34375 0  0.0625 0.34375 0  0.09375 0.34375 0  0.125 0.34375 0  0.15625 0.34375 0  0.1875 0.34375 0  0.21875 0.34375 0  0.25 0.34375 0  0.28125 0.34375 0  0.3125 0.34375 0  0.34375 0.34375 0  0.375 0.34375 0  0.40625 0.34375 0  0.4375 0.34375 0  0.46875 0.34375 0  0.5 0.34375 0  0.53125 0.34375 0  0.5625 0.34375 0  0.59375 0.34375 0  0.625 0.34375 0  0.65625 0.34375 0  0.6875 0.34375 0  0.71875 0.34375 0  0.75 0.34375 0  0.78125 0.34375 0  0.8125 0.34375 0  0.84375 0.34375 0  0.875 0.34375 0  0.90625 0.34375 0  0.9375 0.34375 0  0.96875 0.34375 0  1 0.34375 0  1.03125 0.34375 0  1.0625 0.34375 0  1.09375 0.34375 0  1.125 0.34375 0  1.15625 0.34375 0  1.1875 0.34375 0  1.21875 0.34375 0  1.25 0.34375 0  1.28125 0.34375 0  1.3125 0.34375 0  1.34375 0.34375 0  1.375 0.34375 0  1
[...]
<PointData  Scalars="f_33"> 
<DataArray  type="Float64"  Name="f_33"  format="ascii">3.1940678723893537e-05  3.2275684204892347e-05  3.3257590394853100e-05  3.3882701665967094e-05  3.4074600310002052e-05  3.3934832320951287e-05  3.3553756243771227e-05  3.3000605445818659e-05  3.2328299402747874e-05  3.1575870978138145e-05  3.0770510769070097e-05  2.9930179071557485e-05  2.9066098838829078e-05  2.8184858344757873e-05  2.7290005868859524e-05  2.6383144847901094e-05  2.5464620266802749e-05  2.4533918136600083e-05  2.3589897820497263e-05  2.2630957762906485e-05  2.1655209818265760e-05  2.0660710210361596e-05  1.9645766688011369e-05  1.8609312059037272e-05  1.7551306912636156e-05  1.6473114786987827e-05  1.5377787599982552e-05  1.4270210768848355e-05  1.3157083090658102e-05  1.2046737742241862e-05  1.0948837797301793e-05  9.8739941210215307e-06  8.8333529306351580e-06  7.8381813006387697e-06  6.8994525080818097e-06  6.0273779402043892e-06  5.2308198691468458e-06  4.5163805604575522e-06  3.8872002775450893e-06  3.3408186248051693e-06  2.8674363901547639e-06  2.4448785903371332e-06  2.0405797784383130e-06  1.5939455463419107e-06  1.0530855244041869e-06  2.4460758098124714e-07  -8.7482648564779546e-07  -2.3191008348110169e-06  -2.4985668116017730e-06  3.2020731011246661e-05  3.2038404549149084e-05  3.3217133739423206e-05  3.3924863678639453e-05  3.4117400222641349e-05  3.3953855144979315e-05  3.3550864841969648e-05  3.2980657164297629e-05  3.2296564271887791e-05  3.1537321225402648e-05  3.0729273364508666e-05  2.9889364339119338e-05  2.9027839370287012e-05  2.8150465305491470e-05  2.7260166296279390e-05  2.6358107032159513e-05  2.5444338682763003e-05  2.4518148440729748e-05  2.3578244668755156e-05  2.2622884811004322e-05  2.1650024647381857e-05  2.0657538830396204e-05  1.9643533019298087e-05  1.8606736493369117e-05  1.7546933639573189e-05  1.6465370080422950e-05  1.5365062522789212e-05  1.4250954804406533e-05  1.3129892679207974e-05  1.2010426375636690e-05  1.0902480951552840e-05  9.8169504838010156e-06  8.7652709429916973e-06  7.7590053041278151e-06  6.8094456114613881e-06  5.9271765268685005e-06  5.1215310664829721e-06  4.3997135756052442e-06  3.7656219741199351e-06  3.2176411729637009e-06  2.7468698291305003e-06  2.3316669459395246e-06  1.9398380589299476e-06  1.5091845008818189e-06  9.8835818682796060e-07  1.9920429753359132e-07  -9.4526127757357695e-07  -2.5673019041181375e-06  -2.6701838124731903e-06  3.2093553647180557e-05  3.2000545397221274e-05  3.3357406960635464e-05  3.4122009250385413e-05  3.4314959029851786e-05  3.4104666802839104e-05  3.3653438500993923e-05  3.3037990851333202e-05  3.2316615543268422e-05  3.1529410530078494e-05  3.0702179022026212e-05  2.9850467657931298e-05  2.8982863602660586e-05  2.8103577336615908e-05  2.7214245996673566e-05  2.6315056026289705e-05  2.5405348946201739e-05  2.4483891833826206e-05  2.3548973303110775e-05  2.2598451169288228e-05  2.1629843525900150e-05  2.0640523101327295e-05  1.9628041540403667e-05  1.8590572090155200e-05  1.7527418541860936e-05  1.6439505573082669e-05  1.5329754628065265e-05  1.4203268123878561e-05  1.3067288114528622e-05  1.1930947156424014e-05  1.0804870608384382e-05  9.7007083315001966e-06  8.6306688052924487e-06  7.6070990820438020e-06  6.6421172673871004e-06  5.7472303826443965e-06  4.9328554827158012e-06  4.2074665985858344e-06  3.5764080912964946e-06  3.0394466731884905e-06  2.5888596635339855e-06  2.2028152432156375e-06  1.8481591271320846e-06  1.4554159359628151e-06  9.6860439519310857e-07  1.7018638759305640e-07  -1.0330654633457649e-06  -2.7937484231206362e-06  -2.8065407262369861e-06  3.2130879874600275e-05  3.2045271127809395e-05  3.3563589736494566e-05  3.4391530284386460e-05  3.4610432569069183e-05  3.4365075871162109e-05  3.3865689465995623e-05  3.3194987037450872e-05  3.2422729052201322e-05  3.1592929502793153e-05  3.0732668567916079e-05  2.9856991158785760e-05  2.8973164637399991e-05  2.8083839610894931e-05  2.7189183552176449e-05  2.6288152340766371e-05  2.5379117080132368e-05  2.4460079140907775e-05  2.3528673423610755e-05  2.2582116403861009e-05  2.1617216043620632e-05  2.0630526249196940e-05  1.9618690464019057e-05  1.8578968617312020e-05  1.7509880515040781e-05  1.6411844207669796e-05  1.5287666358949557e-05  1.4142770146660720e-05  1.2985116290663411e-05  1.1824853832271867e-05  1.0673796831548428e-05  9.5448433759443062e-06  8.4514371243258558e-06  7.4071252671831811e-06  6.4252134479051573e-06  5.5184294207544183e-06  4.6984797290585016e-06  3.9751745916827131e-06  3.3551091094340842e-06  2.8389025403394708e-06  2.4187612771390681e-06  2.0710005810520938e-06  1.7577964104656486e-06  1.4005642593201698e-06  9.2924538222353709e-07  1.0472770606936475e-07  -1.1767494184359488e-06  -3.0326780036902740e-06  -3.0568685308504019e-06  3.2244088777670672e-05  3.2186486380991533e-05  3.3805625166838252e-05  3.4696974308351020e-05  3.4951267275916471e-05  3.4689068838634811e-05  3.4151816433293352e-05  3.3428343672525753e-05  3.2602676577623107e-05  3.1724067392270966e-05  3.0822829177396202e-05  2.9914776403707912e-05  2.9006716522495311e-05  2.8100215003761297e-05  2.7194177071388264e-05  2.6286364250913285e-05  2.5374116240456887e-05  2.4454556627837755e-05  2.3524521692482928e-05  2.2580404430445426e-05  2.1618066569437830e-05  2.0632939742433940e-05  1.9620396616361930e-05  1.8576405402349833e-05  1.7498384025673689e-05  1.6386072936767772e-05  1.5242201262937415e-05  1.4072767481548864e-05  1.2886877023642950e-05  1.1696213397440497e-05  1.0514305750753398e-05  9.3557702193467989e-06  8.2356602515881353e-06  7.1689847693524246e-06  6.1703757359908202e-06  5.2537818689297740e-06  4.4320283962089082e-06  3.7158668480819906e-06  3.1124547052189933e-06  2.6222155827734919e-06  2.2358469917923440e-06  1.9260741972586224e-06  1.6487286744992408e-06  1.3154464979978596e-06  8.4429303947846642e-07  -1.5098847409931570e-08  -1.3630001450548940e-06  -3.2859522353598111e-06  -3.3318889618377278e-06  3.2434113884271745e-05  3.2398575429360340e-05  3.4079380785925263e-05  3.5025195223055242e-05  3.5312584027457977e-05  3.5046250105990202e-05  3.4481839782516100e-05  3.3713998051288350e-05  3.2839167088395639e-05  3.1912076922852706e-05  3.0967508433224928e-05  3.0023055936185568e-05  2.9085977317647228e-05  2.8157389821723114e-05  2.7235348525475183e-05  2.6316650858005414e-05  2.5397710962879695e-05  2.4474800723761456e-05  2.3543926861577744e-05  2.2600568232270489e-05  2.1639467418984927e-05  2.0654654040329825e-05  1.9639845049279751e-05  1.8589281960037052e-05  1.7498907833944583e-05  1.6367606811396691e-05  1.5198135326027760e-05  1.3997454293705575e-05  1.2776393254486024e-05  1.1548808362122145e-05  1.0330517942057147e-05  9.1382864554935686e-06  7.9890306168024089e-06  6.8992959085649948e-06  5.8849450857234391e-06  4.9608842036656347e-06  4.1406145649262294e-06  3.4351888459978165e-06  2.8514771111614752e-06  2.3886801266257860e-06  2.0348877192827208e-06  1.7583699350035006e-06  1.5084350232336425e-06  1.1885097152901337e-06  7.0863962638293326e-07  -1.8533793160975721e-07  -1.5861479594199182e-06  -3.5568174445985403e-06  -3.6224495970338513e-06  3.2681248166360530e-05  3.2660872160500886e-05  3.4381308447471647e-05  3.5368324372130899e-05  3.5682510019214776e-05  3.5417891022302276e-05  3.4834499108876792e-05  3.4031709701260304e-05  3.3114684801031861e-05  3.2143345140609350e-05  3.1157148594224321e-05  3.0175999208506919e-05  2.9208276245652786e-05  2.8255213568208745e-05  2.7314457310423314e-05  2.6382145056765067e-05  2.5453965455028096e-05  2.4525466710848892e-05  2.3591900731959402e-05  2.2647843873475562e-05  2.1686827307551196e-05  2.0701229083191643e-05  1.9682681564855659e-05  1.8623156415722200e-05  1.7516635767330762e-05  1.6360935794905859e-05  1.5159044444461466e-05  1.3919480844690447e-05  1.2655611977470551e-05  1.1384273497550723e-05  1.0124198523979028e-05  8.8946612193423137e-06  7.7145349118198971e-06  6.6017653265513192e-06  5.5731261060354946e-06  4.6440117949310444e-06  3.8280026753661182e-06  3.1357455577356552e-06  2.5730437423812354e-06  2.1371115103866958e-06  1.8128539128357002e-06  1.5639857514239403e-06  1.3340631669023231e-06  1.0203729622576763e-06  5.2832874453295119e-07  -3.9622996066926864e-07  -1.8378966429450280e-06  -3.8422698404198059e-06  -3.9222152913148125e-06  3.2964668351673435e-05  3.2954718190573266e-05  3.4701780342714388e-05  3.5718438357191135e-05  3.6053026857930751e-05  3.5791736077338103e-05  3.5195083439072564e-05  3.4365516026022233e-05  3.3413780596687901e-05  3.2404323366192062e-05  3.1380737811526489e-05  3.0365360953856917e-05  2.9368031836686449e-05  2.8390483168871606e-05  2.7430305805171567e-05  2.6483256946244125e-05  2.5544518239078551e-05  2.4609092210836217e-05  2.3671631597741261e-05  2.2725925936606719e-05  2.1764302644574583e-05  2.0777280943518250e-05  1.9753906838119793e-05  1.8683148288016832e-05  1.7556329101459103e-05  1.6369914545666071e-05  1.5127494699866133e-05  1.3840090598583523e-05  1.2524783175698634e-05  1.1202421001342849e-05  9.8953098964271835e-06  8.6254639314256446e-06  7.4135833072579081e-06  6.2786333791921015e-06  5.2377651776178862e-06  4.3062436843216591e-06  3.4970698837273761e-06  2.8198254222084088e-06  2.2786436058187600e-06  1.8683039906848141e-06  1.5703855558352105e-06  1.3444210966960591e-06  1.1292907503890448e-06  8.1800399528739556e-07  3.1359330555249631e-07  -6.3638793327260116e-07  -2.1092382363221794e-06  -4.1375266065864398e-06  -4.2272842660847910e-06  3.3265933165887262e-05  3.3263405908446242e-05  3.5029035630855714e-05  3.6066778237258155e-05  3.6416408769762679e-05  3.6158319124328324e-05  3.5552307800201161e-05  3.4702468539901106e-05  3.3723109103880819e-05  3.2682279130590383e-05  3.1626905226017759e-05  3.0581610165936586e-05  2.9557741087543402e-05  2.8557715543479968e-05  2.7579284106229172e-05  2.6618017000311970e-05  2.5668762769201275e-05  2.4726148599368420e-05  2.3784429088154291e-05  2.2836822224067308e-05  2.1874590391344290e-05  2.0886263318598249e-05  1.9857698649801636e-05  1.8773806821268810e-05  1.7622171666837465e-05  1.6397492059709743e-05  1.5104637687362912e-05  1.3758678054612484e-05  1.2382142866466173e-05  1.1001193316216589e-05  9.6423100865860879e-06  8.3302139634195695e-06  7.0869729969550601e-06  5.9318990604595386e-06  4.8817837773245393e-06  3.9510480331371906e-06  3.1514666550529083e-06  2.4910112253981952e-06  1.9717491161376708e-06  1.5858531866641329e-06  1.3117282029431645e-06  1.1053067734684280e-06  9.0184321956224582e-07  5.9148606642562244e-07  7.6235092540294402e-08  -8.9405260924581910e-07  -2.3905436350285503e-06  -4.4358532386881865e-06  -4.5322571163219162e-06  3.3568928070445114e-05  3.3571906052455211e-05  3.5350944662848351e-05  3.6403811601102408e-05  3.6764430297641427e-05  3.6508983982159543e-05  3.5896357468550017e-05  3.5031425735589608e-05  3.4030818229698099e-05  3.2965264022797664e-05  3.1884271943225691e-05  3.0814447515257328e-05  2.9768512780455454e-05  2.8749601509350221e-05  2.7755704064395849e-05  2.6782289644158012e-05  2.5823960114388129e-05  2.4875071544296944e-05  2.3929679783459816e-05  2.2980725684111310e-05  2.2018728551708896e-05  2.1030256445664732e-05  1.9997277120363120e-05  1.8899072726464611e-05  1.7717701625085898e-05  1.6445446666317298e-05  1.5089738810441791e-05  1.3672309520174587e-05  1.2223693350044724e-05  1.0776874914773659e-05  9.3628189111886529e-06  8.0084150868624601e-06  6.7361629178380587e-06  5.5647129154509398e-06  4.5095906749366836e-06  3.5836317776479745e-06  2.7968216136228653e-06  2.1551393840328484e-06  1.6584015889498826e-06  1.2962235861599446e-06  1.0441643173942576e-06  8.5519289971598727e-07  6.6183778465602025e-07  3.5239191495314024e-07  -1.7142340821160403e-07  -1.1573926941531174e-06  -2.6716630975910253e-06  -4.7291130870707017e-06  -4.8300110386417409e-06  3.3859535161595149e-05  3.3866748599350691e-05  3.5655785875226856e-05  3.6719700213815341e-05  3.7088422454548524e-05  3.6835140890368181e-05  3.6217984444740958e-05  3.5342177709626245e-05  3.4325899639693715e-05  3.3241814317592146e-05  3.2141404342614257e-05  3.1052903144551529e-05  2.9990204369420461e-05  2.8957098835364610e-05  2.7951804325660482e-05  2.6969684513820326e-05  2.6005077708661550e-05  2.5052056977354055e-05  2.4104610019734889e-05  2.3155705507554234e-05  2.2195697011142685e-05  2.1209527444678804e-05  2.0174580089705431e-05  1.9062137432178825e-05  1.7845626883848579e-05  1.6513877562806219e-05  1.5079407824648017e-05  1.3575110725577149e-05  1.2043160469688901e-05  1.0524754648781720e-05  9.0548543180694177e-06  7.6611161831653291e-06  6.3649190590845149e-06  5.1829343394816307e-06  4.1284474345440781e-06  3.2120557086244903e-06  2.4415659905813197e-06  1.8207940582536794e-06  1.3473326616737465e-06  1.0084666328878420e-06  7.7734115035961264e-07  6.0458334859208392e-07  4.2073119316298271e-07  1.1291811617387498e-07  -4.1701269019225326e-07  -1.4146671365126629e-06  -2.9421321661356881e-06  -5.0082027629926856e-06  -5.1121348759264958e-06  3.4125377849075354e-05  3.4135935614537069e-05  3.5932616099889985e-05  3.7004765537123127e-05  3.7379596430708338e-05  3.7128204605450490e-05  3.6508206134820988e-05  3.5624988548964851e-05  3.4597799744875407e-05  3.3500703581185237e-05  3.2386688224594066e-05  3.1285289250725296e-05  3.0211375705386499e-05  2.9169312627987301e-05  2.8157505852616121e-05  2.7171173046013301e-05  2.6204296345788111e-05  2.5250527194068007e-05  2.4303754255398022e-05  2.3357131886494293e-05  2.2401723131408009e-05  2.1421672286429153e-05  2.0389528805810651e-05  1.9265012921396083e-05  1.8007300073118472e-05  1.6600206429034684e-05  1.5066447317510806e-05  1.3457772035889079e-05  1.1832658875500598e-05  1.0240830486752037e-05  8.7191015785956959e-06  7.2932594721123543e-06  5.9814147131002348e-06  4.7968284864571045e-06  3.7497246838951280e-06  2.8480710964303284e-06  2.0973882270500531e-06  1.4994143249934971e-06  1.0497546180520697e-06  7.3373336208191906e-07  5.2257268928934837e-07  3.6513686562210791e-07  1.9056619396405817e-07  -1.1468527852661150e-07  -6.4845570731862602e-07  -1.6544471531202237e-06  -3.1914923909600470e-06  -5.2635945045233150e-06  -5.3695598863085891e-06  3.4355712495445041e-05  3.4368937183969942e-05  3.6171529853771837e-05  3.7249909279867433e-05  3.7629456919612296e-05  3.7379834128076400e-05  3.6758364283314955e-05  3.5870529817735657e-05  3.4836345730209655e-05  3.3730902514138772e-05  3.2608341922773105e-05  3.1499239948896409e-05  3.0419287397401214e-05  2.9373368352765073e-05  2.8360076718913197e-05  2.7374489095676739e-05  2.6410156575120087e-05  2.5460126631452903e-05  2.4517920629257239e-05  2.3576668572431733e-05  2.2629126945604883e-05  2.1659980996544035e-05  2.0638411992120186e-05  1.9507223763347628e-05  1.8201182945004805e-05  1.6697308421276690e-05  1.5038585710642483e-05  1.3308116635522104e-05  1.1585270616021560e-05  9.9255223628494585e-06  8.3627195338278570e-06  6.9169056204039444e-06  5.6006191669403688e-06  4.4226353169228894e-06  3.3897868115064281e-06  2.5074766314475889e-06  1.7791969436628053e-06  1.2049643433785588e-06  7.7881463013550916e-07  4.8458086200398086e-07  2.9207227264661090e-07  1.4891109487298707e-07  -1.6687530826908780e-08  -3.1862174242064259e-07  -8.5433569166283758e-07  -1.8659418860204142e-06  -3.4097079082130204e-06  -5.4859123929256151e-06  -5.5932226070073569e-06  3.4541452082490035e-05  3.4556778779290133e-05  3.6363908961934750e-05  3.7447002523554956e-05  3.7830237448177340e-05  3.7582313866558544e-05  3.6960421967483353e-05  3.6070115761332979e-05  3.5031971570814968e-05  3.3921834345134698e-05  3.2794726564230626e-05  3.1682055634210061e-05  3.0600217510833968e-05  2.9554598955757976e-05  2.8544050885071594e-05  2.7563625843566065e-05  2.6606526192220942e-05  2.5665167072469499e-05  2.4732310411161090e-05  2.3800468398996726e-05  2.2864421245499172e-05  2.1910691161067552e-05  2.0910560575271347e-05  1.9781823537147438e-05  1.8418737532350106e-05  1.6790936586246323e-05  1.4978954579986926e-05  1.3115363302428342e-05  1.1301733914088633e-05  9.5904740107119357e-06  8.0047475803416321e-06  6.5548180440754504e-06  5.2462713890540555e-06  4.0833564135696795e-06  3.0699970611074449e-06  2.2096489247678083e-06  1.5043826323491834e-06  9.5305506518873946e-07  5.4865740987150406e-07  2.7403323951933646e-07  9.8061266440832215e-08  -3.2435163273866578e-08  -1.8980292731754375e-07  -4.8808283089548261e-07  -1.0243317159648726e-06  -2.0394113115009975e-06  -3.5876381380194481e-06  -5.6665026207198887e-06  -5.7746908595206694e-06  3.4675282615325039e-05  3.4692197911809627e-05  3.6502682707159398e-05  3.7589253285602014e-05  3.7975334064222812e-05  3.7729001765842373e-05  3.7107405133960941e-05  3.6216149965480389e-05  3.5176206591042637e-05  3.4063949084263737e-05  3.2935041166010002e-05  3.1821525245194282e-05  3.0740380778843021e-05  2.9697474040484848e-05  2.8692001148621910e-05  2.7719190380459346e-05  2.6772186650616499e-05  2.5843086669575335e-05  2.4923866610906844e-05  2.4006077005670402e-05  2.3085122635971738e-05  2.2149154629652213e-05  2.1181473661674860e-05  2.0064298655838236e-05  1.8635757815771425e-05  1.6860158411734127e-05  1.4874590997003540e-05  1.2883212297493717e-05  1.1003567401476209e-05  9.2681532020058571e-06  7.6814929591605623e-06  6.2425546051063455e-06  4.9508988658174629e-06  3.8076710651398709e-06  2.8151560616679553e-06  1.9758564279818980e-06  1.2911836644763125e-06  7.5943870935055603e-07  3.7307475708843669e-07  1.1439314011560159e-07  -4.8255544009459365e-08  -1.6850264403529673e-07  -3.1899959297992144e-07  -6.1381897331915615e-07  -1.1497015271863162e-06  -2.1666215526095037e-06  -3.7175198097614019e-06  -5.7979645808590804e-06  -5.9067236258689230e-06  3.4751822310614451e-05  3.4769830294752940e-05  3.6582582711368825e-05  3.7671542241574273e-05  3.8059710143743563e-05  3.7814783342326579e-05  3.7193901009064512e-05  3.6302685705501080e-05  3.5262338727671565e-05  3.4149546598471117e-05  3.3020369492632622e-05  3.1907259339197921e-05  3.0827599261095887e-05  2.9787626830831806e-05  2.8786869518152913e-05  2.7820838740092266e-05  2.6882894239322712e-05  2.5965262213340301e-05  2.5059689852990242e-05  2.4157391189459141e-05  2.3252415459004585e-05  2.2333731329740932e-05  2.1402390050098841e-05  2.0294051200366293e-05  1.8804662251284930e-05  1.6894913612403962e-05  1.4743954905047969e-05  1.2656440411672289e-05  1.0750380609577496e-05  9.0188641600542251e-06  7.4467586889407017e-06  6.0254065836861634e-06  4.7516726056670810e-06  3.6258126845358440e-06  2.6498452328098442e-06  1.8261836043074838e-06  1.1561610146548974e-06  6.3795490747719515e-07  2.6383889445203329e-07  1.5890338324441174e-08  -1.3778212395059483e-07  -2.5102836882602081e-07  -3.9664427784707036e-07  -6.8870551181666941e-07  -1.2237611536183968e-06  -2.2412872803177674e-06  -3.7934107068635336e-06  -5.8746112387025206e-06  -5.9837428552484789e-06  3.4767774061191014e-05  3.4786380764707418e-05  3.6600359746886471e-05  3.7690698142700978e-05  3.8080232374280687e-05  3.7836465842780375e-05  3.7216517487719618e-05  3.6325974410076242e-05  3.5286097675218676e-05  3.4173662517900837e-05  3.3044861198648938e-05  3.1932288001312027e-05  3.0853475510570207e-05  2.9814806652748954e-05  2.8815950626688598e-05  2.7852558183834332e-05  2.6918128443471779e-05  2.6005027507452268e-05  2.5105050434571305e-05  2.4209687323631591e-05  2.3311738409473517e-05  2.2402289928763126e-05  2.1491041001964910e-05  2.0396269223576012e-05  1.8874190579362359e-05  1.6916324090672653e-05  1.4687717265983055e-05  1.2546852526298455e-05  1.0642111351889946e-05  8.9199374097938795e-06  7.3581990920623414e-06  5.9461656879059480e-06  4.6806820109317613e-06  3.5622103900413777e-06  2.5929627569375863e-06  1.7754873060688109e-06  1.1111909251297880e-06  5.9827293775157936e-07  2.2898865553335450e-07  -1.4632376571040346e-08  -1.6454627937657277e-07  -2.7467368864304322e-07  -4.1786