<?xml version="1.0"?>
<VTKFile type="UnstructuredGrid"  version="0.1"  >
<UnstructuredGrid>
<Piece  NumberOfPoints="1617" NumberOfCells="3072">
<Points>
<DataArray  type="Float64"  NumberOfComponents="3"  format="ascii">0 0 0  0.03125 0 0  0.0625 0 0  0.09375 0 0  0.125 0 0  0.15625 0 0  0.1875 0 0  0.21875 0 0  0.25 0 0  0.28125 0 0  0.3125 0 0  0.34375 0 0  0.375 0 0  0.40625 0 0  0.4375 0 0  0.46875 0 0  0.5 0 0  0.53125 0 0  0.5625 0 0  0.59375 0 0  0.625 0 0  0.65625 0 0  0.6875 0 0  0.71875 0 0  0.75 0 0  0.78125 0 0  0.8125 0 0  0.84375 0 0  0.875 0 0  0.90625 0 0  0.9375 0 0  0.96875 0 0  1 0 0  1.03125 0 0  1.0625 0 0  1.09375 0 0  1.125 0 0  1.15625 0 0  1.1875 0 0  1.21875 0 0  1.25 0 0  1.28125 0 0  1.3125 0 0  1.34375 0 0  1.375 0 0  1.40625 0 0  1.4375 0 0  1.46875 0 0  1.5 0 0  0 0.03125 0  0.03125 0.03125 0  0.0625 0.03125 0  0.09375 0.03125 0  0.125 0.03125 0  0.15625 0.03125 0  0.1875 0.03125 0  0.21875 0.03125 0  0.25 0.03125 0  0.28125 0.03125 0  0.3125 0.03125 0  0.34375 0.03125 0  0.375 0.03125 0  0.40625 0.03125 0  0.4375 0.03125 0  0.46875 0.03125 0  0.5 0.03125 0  0.53125 0.03125 0  0.5625 0.03125 0  0.59375 0.03125 0  0.625 0.03125 0  0.65625 0.03125 0  0.6875 0.03125 0  0.71875 0.03125 0  0.75 0.03125 0  0.78125 0.03125 0  0.8125 0.03125 0  0.84375 0.03125 0  0.875 0.03125 0  0.90625 0.03125 0  0.9375 0.03125 0  0.96875 0.03125 0  1 0.03125 0  1.03125 0.03125 0  1.0625 0.03125 0  1.09375 0.03125 0  1.125 0.03125 0  1.15625 0.03125 0  1.1875 0.03125 0  1.21875 0.03125 0  1.25 0.03125 0  1.28125 0.03125 0  1.3125 0.03125 0  1.34375 0.03125 0  1.375 0.03125 0  1.40625 0.03125 0  1.4375 0.03125 0  1.46875 0.03125 0  1.5 0.03125 0  0 0.0625 0  0.03125 0.0625 0  0.0625 0.0625 0  0.09375 0.0625 0  0.125 0.0625 0  0.15625 0.0625 0  0.1875 0.0625 0  0.21875 0.0625 0  0.25 0.0625 0  0.28125 0.0625 0  0.3125 0.0625 0  0.34375 0.0625 0  0.375 0.0625 0  0.40625 0.0625 0  0.4375 0.0625 0  0.46875 0.0625 0  0.5 0.0625 0  0.53125 0.0625 0  0.5625 0.0625 0  0.59375 0.0625 0  0.625 0.0625 0  0.65625 0.0625 0  0.6875 0.0625 0  0.71875 0.0625 0  0.75 0.0625 0  0.78125 0.0625 0  0.8125 0.0625 0  0.84375 0.0625 0  0.875 0.0625 0  0.90625 0.0625 0  0.9375 0.0625 0  0.96875 0.0625 0  1 0.0625 0  1.03125 0.0625 0  1.0625 0.0625 0  1.09375 0.0625 0  1.125 0.0625 0  1.15625 0.0625 0  1.1875 0.0625 0  1.21875 0.0625 0  1.25 0.0625 0  1.28125 0.0625 0  1.3125 0.0625 0  1.34375 0.0625 0  1.375 0.0625 0  1.40625 0.0625 0  1.4375 0.0625 0  1.46875 0.0625 0  1.5 0.0625 0  0 0.09375 0  0.03125 0.09375 0  0.0625 0.09375 0  0.09375 0.09375 0  0.125 0.09375 0  0.15625 0.09375 0  0.1875 0.09375 0  0.21875 0.09375 0  0.25 0.09375 0  0.28125 0.09375 0  0.3125 0.09375 0  0.34375 0.09375 0  0.375 0.09375 0  0.40625 0.09375 0  0.4375 0.09375 0  0.46875 0.09375 0  0.5 0.09375 0  0.53125 0.09375 0  0.5625 0.09375 0  0.59375 0.09375 0  0.625 0.09375 0  0.65625 0.09375 0  0.6875 0.09375 0  0.71875 0.09375 0  0.75 0.09375 0  0.78125 0.09375 0  0.8125 0.09375 0  0.84375 0.09375 0  0.875 0.09375 0  0.90625 0.09375 0  0.9375 0.09375 0  0.96875 0.09375 0  1 0.09375 0  1.03125 0.09375 0  1.0625 0.09375 0  1.09375 0.09375 0  1.125 0.09375 0  1.15625 0.09375 0  1.1875 0.09375 0  1.21875 0.09375 0  1.25 0.09375 0  1.28125 0.09375 0  1.3125 0.09375 0  1.34375 0.09375 0  1.375 0.09375 0  1.40625 0.09375 0  1.4375 0.09375 0  1.46875 0.09375 0  1.5 0.09375 0  0 0.125 0  0.03125 0.125 0  0.0625 0.125 0  0.09375 0.125 0  0.125 0.125 0  0.15625 0.125 0  0.1875 0.125 0  0.21875 0.125 0  0.25 0.125 0  0.28125 0.125 0  0.3125 0.125 0  0.34375 0.125 0  0.375 0.125 0  0.40625 0.125 0  0.4375 0.125 0  0.46875 0.125 0  0.5 0.125 0  0.53125 0.125 0  0.5625 0.125 0  0.59375 0.125 0  0.625 0.125 0  0.65625 0.125 0  0.6875 0.125 0  0.71875 0.125 0  0.75 0.125 0  0.78125 0.125 0  0.8125 0.125 0  0.84375 0.125 0  0.875 0.125 0  0.90625 0.125 0  0.9375 0.125 0  0.96875 0.125 0  1 0.125 0  1.03125 0.125 0  1.0625 0.125 0  1.09375 0.125 0  1.125 0.125 0  1.15625 0.125 0  1.1875 0.125 0  1.21875 0.125 0  1.25 0.125 0  1.28125 0.125 0  1.3125 0.125 0  1.34375 0.125 0  1.375 0.125 0  1.40625 0.125 0  1.4375 0.125 0  1.46875 0.125 0  1.5 0.125 0  0 0.15625 0  0.03125 0.15625 0  0.0625 0.15625 0  0.09375 0.15625 0  0.125 0.15625 0  0.15625 0.15625 0  0.1875 0.15625 0  0.21875 0.15625 0  0.25 0.15625 0  0.28125 0.15625 0  0.3125 0.15625 0  0.34375 0.15625 0  0.375 0.15625 0  0.40625 0.15625 0  0.4375 0.15625 0  0.46875 0.15625 0  0.5 0.15625 0  0.53125 0.15625 0  0.5625 0.15625 0  0.59375 0.15625 0  0.625 0.15625 0  0.65625 0.15625 0  0.6875 0.15625 0  0.71875 0.15625 0  0.75 0.15625 0  0.78125 0.15625 0  0.8125 0.15625 0  0.84375 0.15625 0  0.875 0.15625 0  0.90625 0.15625 0  0.9375 0.15625 0  0.96875 0.15625 0  1 0.15625 0  1.03125 0.15625 0  1.0625 0.15625 0  1.09375 0.15625 0  1.125 0.15625 0  1.15625 0.15625 0  1.1875 0.15625 0  1.21875 0.15625 0  1.25 0.15625 0  1.28125 0.15625 0  1.3125 0.15625 0  1.34375 0.15625 0  1.375 0.15625 0  1.40625 0.15625 0  1.4375 0.15625 0  1.46875 0.15625 0  1.5 0.15625 0  0 0.1875 0  0.03125 0.1875 0  0.0625 0.1875 0  0.09375 0.1875 0  0.125 0.1875 0  0.15625 0.1875 0  0.1875 0.1875 0  0.21875 0.1875 0  0.25 0.1875 0  0.28125 0.1875 0  0.3125 0.1875 0  0.34375 0.1875 0  0.375 0.1875 0  0.40625 0.1875 0  0.4375 0.1875 0  0.46875 0.1875 0  0.5 0.1875 0  0.53125 0.1875 0  0.5625 0.1875 0  0.59375 0.1875 0  0.625 0.1875 0  0.65625 0.1875 0  0.6875 0.1875 0  0.71875 0.1875 0  0.75 0.1875 0  0.78125 0.1875 0  0.8125 0.1875 0  0.84375 0.1875 0  0.875 0.1875 0  0.90625 0.1875 0  0.9375 0.1875 0  0.96875 0.1875 0  1 0.1875 0  1.03125 0.1875 0  1.0625 0.1875 0  1.09375 0.1875 0  1.125 0.1875 0  1.15625 0.1875 0  1.1875 0.1875 0  1.21875 0.1875 0  1.25 0.1875 0  1.28125 0.1875 0  1.3125 0.1875 0  1.34375 0.1875 0  1.375 0.1875 0  1.40625 0.1875 0  1.4375 0.1875 0  1.46875 0.1875 0  1.5 0.1875 0  0 0.21875 0  0.03125 0.21875 0  0.0625 0.21875 0  0.09375 0.21875 0  0.125 0.21875 0  0.15625 0.21875 0  0.1875 0.21875 0  0.21875 0.21875 0  0.25 0.21875 0  0.28125 0.21875 0  0.3125 0.21875 0  0.34375 0.21875 0  0.375 0.21875 0  0.40625 0.21875 0  0.4375 0.21875 0  0.46875 0.21875 0  0.5 0.21875 0  0.53125 0.21875 0  0.5625 0.21875 0  0.59375 0.21875 0  0.625 0.21875 0  0.65625 0.21875 0  0.6875 0.21875 0  0.71875 0.21875 0  0.75 0.21875 0  0.78125 0.21875 0  0.8125 0.21875 0  0.84375 0.21875 0  0.875 0.21875 0  0.90625 0.21875 0  0.9375 0.21875 0  0.96875 0.21875 0  1 0.21875 0  1.03125 0.21875 0  1.0625 0.21875 0  1.09375 0.21875 0  1.125 0.21875 0  1.15625 0.21875 0  1.1875 0.21875 0  1.21875 0.21875 0  1.25 0.21875 0  1.28125 0.21875 0  1.3125 0.21875 0  1.34375 0.21875 0  1.375 0.21875 0  1.40625 0.21875 0  1.4375 0.21875 0  1.46875 0.21875 0  1.5 0.21875 0  0 0.25 0  0.03125 0.25 0  0.0625 0.25 0  0.09375 0.25 0  0.125 0.25 0  0.15625 0.25 0  0.1875 0.25 0  0.21875 0.25 0  0.25 0.25 0  0.28125 0.25 0  0.3125 0.25 0  0.34375 0.25 0  0.375 0.25 0  0.40625 0.25 0  0.4375 0.25 0  0.46875 0.25 0  0.5 0.25 0  0.53125 0.25 0  0.5625 0.25 0  0.59375 0.25 0  0.625 0.25 0  0.65625 0.25 0  0.6875 0.25 0  0.71875 0.25 0  0.75 0.25 0  0.78125 0.25 0  0.8125 0.25 0  0.84375 0.25 0  0.875 0.25 0  0.90625 0.25 0  0.9375 0.25 0  0.96875 0.25 0  1 0.25 0  1.03125 0.25 0  1.0625 0.25 0  1.09375 0.25 0  1.125 0.25 0  1.15625 0.25 0  1.1875 0.25 0  1.21875 0.25 0  1.25 0.25 0  1.28125 0.25 0  1.3125 0.25 0  1.34375 0.25 0  1.375 0.25 0  1.40625 0.25 0  1.4375 0.25 0  1.46875 0.25 0  1.5 0.25 0  0 0.28125 0  0.03125 0.28125 0  0.0625 0.28125 0  0.09375 0.28125 0  0.125 0.28125 0  0.15625 0.28125 0  0.1875 0.28125 0  0.21875 0.28125 0  0.25 0.28125 0  0.28125 0.28125 0  0.3125 0.28125 0  0.34375 0.28125 0  0.375 0.28125 0  0.40625 0.28125 0  0.4375 0.28125 0  0.46875 0.28125 0  0.5 0.28125 0  0.53125 0.28125 0  0.5625 0.28125 0  0.59375 0.28125 0  0.625 0.28125 0  0.65625 0.28125 0  0.6875 0.28125 0  0.71875 0.28125 0  0.75 0.28125 0  0.78125 0.28125 0  0.8125 0.28125 0  0.84375 0.28125 0  0.875 0.28125 0  0.90625 0.28125 0  0.9375 0.28125 0  0.96875 0.28125 0  1 0.28125 0  1.03125 0.28125 0  1.0625 0.28125 0  1.09375 0.28125 0  1.125 0.28125 0  1.15625 0.28125 0  1.1875 0.28125 0  1.21875 0.28125 0  1.25 0.28125 0  1.28125 0.28125 0  1.3125 0.28125 0  1.34375 0.28125 0  1.375 0.28125 0  1.40625 0.28125 0  1.4375 0.28125 0  1.46875 0.28125 0  1.5 0.28125 0  0 0.3125 0  0.03125 0.3125 0  0.0625 0.3125 0  0.09375 0.3125 0  0.125 0.3125 0  0.15625 0.3125 0  0.1875 0.3125 0  0.21875 0.3125 0  0.25 0.3125 0  0.28125 0.3125 0  0.3125 0.3125 0  0.34375 0.3125 0  0.375 0.3125 0  0.40625 0.3125 0  0.4375 0.3125 0  0.46875 0.3125 0  0.5 0.3125 0  0.53125 0.3125 0  0.5625 0.3125 0  0.59375 0.3125 0  0.625 0.3125 0  0.65625 0.3125 0  0.6875 0.3125 0  0.71875 0.3125 0  0.75 0.3125 0  0.78125 0.3125 0  0.8125 0.3125 0  0.84375 0.3125 0  0.875 0.3125 0  0.90625 0.3125 0  0.9375 0.3125 0  0.96875 0.3125 0  1 0.3125 0  1.03125 0.3125 0  1.0625 0.3125 0  1.09375 0.3125 0  1.125 0.3125 0  1.15625 0.3125 0  1.1875 0.3125 0  1.21875 0.3125 0  1.25 0.3125 0  1.28125 0.3125 0  1.3125 0.3125 0  1.34375 0.3125 0  1.375 0.3125 0  1.40625 0.3125 0  1.4375 0.3125 0  1.46875 0.3125 0  1.5 0.3125 0  0 0.34375 0  0.03125 0.34375 0  0.0625 0.34375 0  0.09375 0.34375 0  0.125 0.34375 0  0.15625 0.34375 0  0.1875 0.34375 0  0.21875 0.34375 0  0.25 0.34375 0  0.28125 0.34375 0  0.3125 0.34375 0  0.34375 0.34375 0  0.375 0.34375 0  0.40625 0.34375 0  0.4375 0.34375 0  0.46875 0.34375 0  0.5 0.34375 0  0.53125 0.34375 0  0.5625 0.34375 0  0.59375 0.34375 0  0.625 0.34375 0  0.65625 0.34375 0  0.6875 0.34375 0  0.71875 0.34375 0  0.75 0.34375 0  0.78125 0.34375 0  0.8125 0.34375 0  0.84375 0.34375 0  0.875 0.34375 0  0.90625 0.34375 0  0.9375 0.34375 0  0.96875 0.34375 0  1 0.34375 0  1.03125 0.34375 0  1.0625 0.34375 0  1.09375 0.34375 0  1.125 0.34375 0  1.15625 0.34375 0  1.1875 0.34375 0  1.21875 0.34375 0  1.25 0.34375 0  1.28125 0.34375 0  1.3125 0.34375 0  1.34375 0.34375 0  1.375 0.34375 0  1
[...]
<PointData  Scalars="f_33"> 
<DataArray  type="Float64"  Name="f_33"  format="ascii">3.0765031793922578e-05  3.0943607013068558e-05  3.1550921028423113e-05  3.1752167871946409e-05  3.1640559383433158e-05  3.1382672571539856e-05  3.1051611817019002e-05  3.0670410667650089e-05  3.0245856833445896e-05  2.9780544888034489e-05  2.9276014681908540e-05  2.8733570378889506e-05  2.8154408303056331e-05  2.7539586228036744e-05  2.6889953723830165e-05  2.6206060163361309e-05  2.5488048477914595e-05  2.4735550463779413e-05  2.3947609687843238e-05  2.3122665874164357e-05  2.2258636705066741e-05  2.1353125643198083e-05  2.0403765383455072e-05  1.9408677094585272e-05  1.8366991995791717e-05  1.7279354736326490e-05  1.6148318808038300e-05  1.4978558981380238e-05  1.3776861493277660e-05  1.2551897925362383e-05  1.1313829157307441e-05  1.0073810166771001e-05  8.8434722751420182e-06  7.6344467323574952e-06  6.4579778466241033e-06  5.3246394924652400e-06  4.2441839496504562e-06  3.2254503860644186e-06  2.2764991775085357e-06  1.4044779132797331e-06  6.1648490836291618e-07  -8.2223995251366918e-08  -6.8372566605919114e-07  -1.1934794992409452e-06  -1.6046057920168040e-06  -2.0622364101870283e-06  -2.7042751821657166e-06  -3.7773454098334475e-06  -3.8335728655578357e-06  3.0939196590137123e-05  3.0797034321850317e-05  3.1552759332156288e-05  3.1770142633723655e-05  3.1617694788822997e-05  3.1328328312637949e-05  3.0986994069720912e-05  3.0606407097252526e-05  3.0186802796135638e-05  2.9727997398081798e-05  2.9230392237471947e-05  2.8694830646989587e-05  2.8122308170594725e-05  2.7513790597540023e-05  2.6870089832958914e-05  2.6191746966844153e-05  2.5478908009642050e-05  2.4731201011244065e-05  2.3947639517325272e-05  2.3126588279507632e-05  2.2265831465037342e-05  2.1362777480479014e-05  2.0414814773787255e-05  1.9419800222409805e-05  1.8376622709856568e-05  1.7285751915493141e-05  1.6149670306078795e-05  1.4973102917640522e-05  1.3763001259696249e-05  1.2528290297274879e-05  1.1279433480433336e-05  1.0027897003214122e-05  8.7855986640434532e-06  7.5644102068920586e-06  6.3757630088649584e-06  5.2303688557911687e-06  4.1380851717636171e-06  3.1078443658543717e-06  2.1478348488660211e-06  1.2653991423329435e-06  4.6808421236936706e-07  -2.3811334268101174e-07  -8.4321029850029208e-07  -1.3494836625774806e-06  -1.7388488511078015e-06  -2.1439951770899285e-06  -2.7403920952904034e-06  -3.9265447967916462e-06  -3.8977622034774712e-06  3.1191218422906708e-05  3.0915200597659419e-05  3.1767046391158624e-05  3.1933942425224957e-05  3.1707816675483763e-05  3.1348272947849990e-05  3.0969510999193474e-05  3.0570092127074199e-05  3.0142637472743833e-05  2.9682139984477739e-05  2.9186234860020048e-05  2.8654244807887365e-05  2.8086321226797984e-05  2.7482969504588402e-05  2.6844763446828379e-05  2.6172134970410675e-05  2.5465183280785494e-05  2.4723493117004072e-05  2.3945980418926300e-05  2.3130804002794013e-05  2.2275393641664115e-05  2.1376643290097193e-05  2.0431297331457732e-05  1.9436516193631518e-05  1.8390553259742983e-05  1.7293426227802495e-05  1.6147445884488551e-05  1.4957487859256356e-05  1.3730953021439711e-05  1.2477436457828669e-05  1.1208185960377927e-05  9.9354604984783988e-06  8.6718970050322965e-06  7.4299658717591528e-06  6.2215676934599561e-06  5.0577763885457819e-06  3.9487600031809839e-06  2.9037800684040933e-06  1.9315163979178205e-06  1.0400735676264274e-06  2.3851649807996229e-07  -4.6494259476929451e-07  -1.0553638113383441e-06  -1.5307869315869582e-06  -1.8619986111024752e-06  -2.2073019478357678e-06  -2.7599633375698898e-06  -3.9927472839520426e-06  -3.8369208528536748e-06  3.1419461116379948e-05  3.1127035857098143e-05  3.2062863330842666e-05  3.2187347053524979e-05  3.1904546083796189e-05  3.1471240852048806e-05  3.1041930483150670e-05  3.0607092899941226e-05  3.0157851572177333e-05  2.9684821067367642e-05  2.9182489580960475e-05  2.8647997980830671e-05  2.8080106643771015e-05  2.7478474399941480e-05  2.6843185940681838e-05  2.6174412141852490e-05  2.5472117066839894e-05  2.4735782005893440e-05  2.3964155596942004e-05  2.3155072356253961e-05  2.2305406646817230e-05  2.1411237045661195e-05  2.0468275590262350e-05  1.9472560515517544e-05  1.8421327779749081e-05  1.7313895426757923e-05  1.6152357492088826e-05  1.4941918883957027e-05  1.3690800140258127e-05  1.2409757587539403e-05  1.1111351658494258e-05  9.8091276460766924e-06  8.5168548235113308e-06  7.2479196926687761e-06  6.0149233835035844e-06  4.8294764576758685e-06  3.7022107150270914e-06  2.6429013523653443e-06  1.6609515086184659e-06  7.6559495659691835e-07  -3.2315622546912883e-08  -7.2194660731118805e-07  -1.2849473894750195e-06  -1.7167779948932757e-06  -1.9904684121845211e-06  -2.2836912883908070e-06  -2.8186506433235873e-06  -4.0676105210398107e-06  -3.8895189530228845e-06  3.1707053449271362e-05  3.1422245949507436e-05  3.2394495505181979e-05  3.2492623376962754e-05  3.2168435241995847e-05  3.1673006567841180e-05  3.1191861315382434e-05  3.0713722716002050e-05  3.0233769328494444e-05  2.9739706349492281e-05  2.9223759794722826e-05  2.8680923443034110e-05  2.8108410854257804e-05  2.7504823275800878e-05  2.6869574686488199e-05  2.6202444084351304e-05  2.5503177587572397e-05  2.4771100415439297e-05  2.4004740474192263e-05  2.3201512230818549e-05  2.2357552717722874e-05  2.1467827266746622e-05  2.0526607608108141e-05  1.9528349464921129e-05  1.8468864112656466e-05  1.7346536250070234e-05  1.6163269063837658e-05  1.4924895348252985e-05  1.3640962857857367e-05  1.2323995258099801e-05  1.0988456823413187e-05  9.6496729178375225e-06  8.3229033311053039e-06  7.0226751557362515e-06  5.7624087886860918e-06  4.5543031178141849e-06  3.4094744249873335e-06  2.3382236195703201e-06  1.3506730427582638e-06  4.5710360754398435e-07  -3.3017362780715122e-07  -9.9861530047953254e-07  -1.5284796683676439e-06  -1.9161029276652922e-06  -2.1404519400549020e-06  -2.3944891092466593e-06  -2.9153164298078340e-06  -4.1691975058901829e-06  -3.9878880394596296e-06  3.2045525744627001e-05  3.1766939155156875e-05  3.2750779562633857e-05  3.2831777289373150e-05  3.2474214713407618e-05  3.1929127011231175e-05  3.1400136613888582e-05  3.0878308784197530e-05  3.0364314966560516e-05  2.9844538117907853e-05  2.9310248329339540e-05  2.8754765462926422e-05  2.8173949024155999e-05  2.7565336299745387e-05  2.6927606923833132e-05  2.6260081404279370e-05  2.5562246669290520e-05  2.4833258079916789e-05  2.4071414732368677e-05  2.3273663511350327e-05  2.2435256720038658e-05  2.1549746373315843e-05  2.0609502482478497e-05  1.9606845650331432e-05  1.8535669824355712e-05  1.7393174349130098e-05  1.6181183231291020e-05  1.4906632155258691e-05  1.3581112826142605e-05  1.2219695093625764e-05  1.0839427108391849e-05  9.4579008161442269e-06  8.0921379297085243e-06  6.7578934591036610e-06  5.4693649921580773e-06  4.2392220537921607e-06  3.0789081054558294e-06  1.9990607312531824e-06  1.0102680293050888e-06  1.2346042906760603e-07  -6.4828667625912490e-07  -1.2918637339314693e-06  -1.7878623940602046e-06  -2.1351451032086970e-06  -2.3188569998122414e-06  -2.5422006638347073e-06  -3.0504624320620841e-06  -4.3051345999935048e-06  -4.1258408680171482e-06  3.2414396638822628e-05  3.2139174007963635e-05  3.3125010743721971e-05  3.3191472333747853e-05  3.2805262107869692e-05  3.2219930721911329e-05  3.1648855441595516e-05  3.1086980126217742e-05  3.0539450479433026e-05  2.9992683515542651e-05  2.9437948880230499e-05  2.8867469928322414e-05  2.8276097307511382e-05  2.7660428656427570e-05  2.7018441357965818e-05  2.6348992266338983e-05  2.5651314623802392e-05  2.4924429029302218e-05  2.4166459704708523e-05  2.3373909327877355e-05  2.2541053108891017e-05  2.1659728851579239e-05  2.0719854880999391e-05  1.9710900927723601e-05  1.8624190413343709e-05  1.7455436612977714e-05  1.6206625121708453e-05  1.4886545233407528e-05  1.3509862515676816e-05  1.2095206264388638e-05  1.0662980044299811e-05  9.2334779703831190e-06  7.8256037895803863e-06  6.4562282571781128e-06  5.1400769734442420e-06  3.8899787711254170e-06  2.7173706674784356e-06  1.6328728029234551e-06  6.4712960659880502e-07  -2.2880737673316960e-07  -9.8181976690086230e-07  -1.5991649350843986e-06  -2.0627538682272919e-06  -2.3744381537511025e-06  -2.5244742257571519e-06  -2.7228213804695862e-06  -3.2195161202852742e-06  -4.4729010960774143e-06  -4.2955507449284481e-06  3.2795833553939543e-05  3.2522261005377594e-05  3.3506563273955847e-05  3.3559480116704892e-05  3.3148456183199331e-05  3.2529856677891731e-05  3.1922910594214219e-05  3.1326143597482136e-05  3.0747875023709559e-05  3.0175385554680320e-05  2.9600376174976824e-05  2.9014482657119127e-05  2.8411879090024990e-05  2.7788392904529647e-05  2.7141375475368120e-05  2.6469246563738346e-05  2.5771019614510707e-05  2.5045654570881162e-05  2.4291221124829495e-05  2.3503893744271992e-05  2.2676964752533925e-05  2.1800271001178829e-05  2.0860602884761093e-05  1.9843600037297762e-05  1.8737087326024965e-05  1.7534904235442957e-05  1.6239656330799400e-05  1.4863184412303478e-05  1.3424724240759513e-05  1.1947772983389034e-05  1.0456914502864775e-05  8.9754341863652751e-06  7.5239836269660741e-06  6.1201607342051297e-06  4.7787248506550646e-06  3.5121597485657512e-06  2.3314212774601636e-06  1.2466625755839248e-06  2.6812699299228523e-07  -5.9351877086172348e-07  -1.3256887583669346e-06  -1.9165957550377365e-06  -2.3498851911145548e-06  -2.6302342545481258e-06  -2.7518589031555156e-06  -2.9292304182800696e-06  -3.4154065283152567e-06  -4.6666129182609031e-06  -4.4903396118779935e-06  3.3175193682613120e-05  3.2902404727393151e-05  3.3883973832213342e-05  3.3924444502625479e-05  3.3492111709932127e-05  3.2845916336697515e-05  3.2209097809160744e-05  3.1582912406317746e-05  3.0977974282605912e-05  3.0382686648586272e-05  2.9789297993829166e-05  2.9189226119502708e-05  2.8576210381141550e-05  2.7945464349050470e-05  2.7293785794346371e-05  2.6619179369214072e-05  2.5920468337319327e-05  2.5196635050438970e-05  2.4445869159716801e-05  2.3664240897791907e-05  2.2844187302298712e-05  2.1973313491643145e-05  2.1034446786217729e-05  2.0008008344831776e-05  1.8876934708763111e-05  1.7632663368103379e-05  1.6279270690054720e-05  1.4833590090207849e-05  1.3321605287989452e-05  1.1773310971016391e-05  1.0218222397651540e-05  8.6825790302942009e-06  7.1882424543422607e-06  5.7527901149543475e-06  4.3902592235451937e-06  3.1121238891197137e-06  1.9283075521455407e-06  8.4803567332010168e-07  -1.1925918561816838e-07  -9.6368482858694322e-07  -1.6735563109953057e-06  -2.2383231374589781e-06  -2.6434195787074254e-06  -2.8959570947024744e-06  -2.9931520751981882e-06  -3.1525551221446018e-06  -3.6292514670644791e-06  -4.8778292054626427e-06  -4.7019699054495827e-06  3.3539880943306230e-05  3.3267487631410510e-05  3.4246138660011801e-05  3.4275611226057079e-05  3.3825319755537155e-05  3.3156478498858299e-05  3.2495319819709398e-05  3.1845093623234264e-05  3.1218140446007341e-05  3.0603912637480519e-05  2.9995210220373698e-05  2.9383453056357234e-05  2.8762099664384201e-05  2.8125871225389692e-05  2.7471057131629195e-05  2.6795239432265410e-05  2.6097041439304466e-05  2.5375512633106995e-05  2.4629156524620739e-05  2.3854263921184683e-05  2.3042742859392646e-05  2.2179882499271040e-05  2.1243552811794089e-05  2.0206951378360670e-05  1.9045948254007686e-05  1.7748828055218625e-05  1.6322726667482809e-05  1.4792662115190830e-05  1.3194491665068267e-05  1.1566562652626304e-05  9.9437011966583232e-06  8.3544425509646058e-06  6.8207355921612312e-06  5.3589755736435486e-06  3.9814948798740673e-06  2.6980144025280867e-06  1.5168934692418463e-06  4.4605049669557229e-07  -5.0617717882992154e-07  -1.3308952803527037e-06  -2.0174802279488219e-06  -2.5566657307421538e-06  -2.9355263482410727e-06  -3.1631623831000592e-06  -3.2390422411037633e-06  -3.3828452202720570e-06  -3.8510348690979122e-06  -5.0968023496648506e-06  -4.9209276853653212e-06  3.3878765048959815e-05  3.3606633287597170e-05  3.4582654166544720e-05  3.4602802936587531e-05  3.4137756786804829e-05  3.3450704872261511e-05  3.2770228106342429e-05  3.2101048885294341e-05  3.1456829001518445e-05  3.0827902374940810e-05  3.0207593075199828e-05  2.9587435469029312e-05  2.8960713205077408e-05  2.8321751178553623e-05  2.7666357357038749e-05  2.6991655359552013e-05  2.6295997788019070e-05  2.5578456168355356e-05  2.4837994608840264e-05  2.4071483458857939e-05  2.3270903122680521e-05  2.2419446162963738e-05  2.1488987586804200e-05  2.0442604282063226e-05  1.9245527411987574e-05  1.7881795029506971e-05  1.6364623922571825e-05  1.4732505099904184e-05  1.3035463739351579e-05  1.1321869620844602e-05  9.6312885700454665e-06  7.9928704957881103e-06  6.4268003106024053e-06  4.9467589833452919e-06  3.5622961012510325e-06  2.2807043409506608e-06  1.1083937436558747e-06  5.1771354109142876e-08  -8.8202224640235484e-07  -1.6851286049150287e-06  -2.3479614883027222e-06  -2.8624210239469147e-06  -3.2169662727160337e-06  -3.4222538714662843e-06  -3.4794211707938905e-06  -3.6096147692787092e-06  -4.0702169173863087e-06  -5.3131708453257149e-06  -5.1370305142700947e-06  3.4181928888907243e-05  3.3910048002529542e-05  3.4883935561101284e-05  3.4896508534450253e-05  3.4419716643348787e-05  3.3718434732371891e-05  3.3023131979337478e-05  3.2339638901803306e-05  3.1682640704532979e-05  3.1043196553719123e-05  3.0415119061979459e-05  2.9790121289838793e-05  2.9161409206641446e-05  2.8523011539252028e-05  2.7870300689187595e-05  2.7199914764359545e-05  2.6509820932748249e-05  2.5798958923076963e-05  2.5066750328764541e-05  2.4310867816217869e-05  2.3524273724203491e-05  2.2688772395010534e-05  2.1769634072111996e-05  2.0715684935302005e-05  1.9475394333631777e-05  1.8027028617970205e-05  1.6395718849613652e-05  1.4642091658549606e-05  1.2835643299446510e-05  1.1035177380090073e-05  9.2825574379012959e-06  7.6044755439093217e-06  6.0168351177799674e-06  4.5289515372852460e-06  3.1466877486920013e-06  1.8745134467450437e-06  7.1678932726723508e-07  -3.2154261541160668e-07  -1.2344297334944849e-06  -2.0149114949959002e-06  -2.6542699773550389e-06  -3.1453482172132948e-06  -3.4776862615174624e-06  -3.6631026103984990e-06  -3.7039430059886732e-06  -3.8223455260325481e-06  -4.2762724429657410e-06  -5.5165480818633611e-06  -5.3400209826352660e-06  3.4440628059336698e-05  3.4169034563214084e-05  3.5141349219927926e-05  3.5148055212801971e-05  3.4662280537010575e-05  3.3950299121609032e-05  3.3244098103567901e-05  3.2550349033504632e-05  3.1884536815366554e-05  3.1238318651290875e-05  3.0605960688491482e-05  2.9979406548630083e-05  2.9351892332332426e-05  2.8717283020738071e-05  2.8070626112011061e-05  2.7408122833183470e-05  2.6727279442399433e-05  2.6026712909522297e-05  2.5306054353123478e-05  2.4563618978404805e-05  2.3794359760704032e-05  2.2979920596406376e-05  2.2080130170929203e-05  2.1023709542137412e-05  1.9731739773485276e-05  1.8175101041390445e-05  1.6401859733210609e-05  1.4508274836373173e-05  1.2588298219513532e-05  1.0708185958920273e-05  8.9067737472130353e-06  7.2039157389851483e-06  5.6085900466492131e-06  4.1245238184786675e-06  2.7535516785178290e-06  1.4974254887928969e-06  3.5873805031081388e-07  -6.5871624221365685e-07  -1.5496754225292073e-06  -2.3078078019151860e-06  -2.9250054909483569e-06  -3.3947818752425035e-06  -3.7074503901772445e-06  -3.8756481328400334e-06  -3.9025639106597898e-06  -4.0109817534728532e-06  -4.4591946773833642e-06  -5.6970544570363025e-06  -5.5201174915890910e-06  3.4647378880001573e-05  3.4376112912502635e-05  3.5347397762399744e-05  3.5349838437472252e-05  3.4857567874405338e-05  3.4137966856629307e-05  3.3424209362466576e-05  3.2723594692607948e-05  3.2052224581876585e-05  3.1402242203088039e-05  3.0768325762216777e-05  3.0142688347695670e-05  2.9518704360135163e-05  2.8890237098607033e-05  2.8252199053717228e-05  2.7600533327042790e-05  2.6932378475473650e-05  2.6245983625522948e-05  2.5540783642041743e-05  2.4815149129447034e-05  2.4066354332365010e-05  2.3277103266474579e-05  2.2407133589591064e-05  2.1356685778911177e-05  2.0002999494021337e-05  1.8309317324806474e-05  1.6364995619096547e-05  1.4320762836288283e-05  1.2296170370142872e-05  1.0355533252195586e-05  8.5263865611190853e-06  6.8173309771675202e-06  5.2288693129954065e-06  3.7590977427892270e-06  2.4063840809021911e-06  1.1704583438649208e-06  5.2777256717449002e-08  -9.4350137912729674e-07  -1.8135077068021685e-06  -2.5512203255498813e-06  -3.1488646619012939e-06  -3.6003589900186466e-06  -3.8965147759987558e-06  -4.0505062111544321e-06  -4.0660801416283983e-06  -4.1664208954471780e-06  -4.6099761000901963e-06  -5.8458060914331821e-06  -5.6685153920432393e-06  3.4796114300315730e-05  3.4525197332784992e-05  3.5495939743935133e-05  3.5495583381762709e-05  3.4999031589619214e-05  3.4274468236383827e-05  3.3555933647252954e-05  3.2851164581137497e-05  3.2176708530627518e-05  3.1525076009875796e-05  3.0891288911091204e-05  3.0267829050299027e-05  2.9648276602286287e-05  2.9026631121426539e-05  2.8397877393120691e-05  2.7757967964638072e-05  2.7103975723185331e-05  2.6434052435102706e-05  2.5747332296744628e-05  2.5041833553833575e-05  2.4315738404792965e-05  2.3552649883021540e-05  2.2722327036459149e-05  2.1686054920781538e-05  2.0261533521106554e-05  1.8406855542526116e-05  1.6272557338674502e-05  1.4085948743252280e-05  1.1984976301436511e-05  1.0014369826615495e-05  8.1821015823409181e-06  6.4839903062936734e-06  4.9131087101833505e-06  3.4635073523434028e-06  2.1315002061952139e-06  9.1586748167135585e-07  -1.8231482888631488e-07  -1.1600091150600072e-06  -2.0123798666799007e-06  -2.7334511434018744e-06  -3.3155596930970694e-06  -3.7528191969589121e-06  -4.0363233926570951e-06  -4.1795703873785119e-06  -4.1866506104250219e-06  -4.2809828572427293e-06  -4.7210546832165639e-06  -5.9553561534880759e-06  -5.7778316614203362e-06  3.4882359360025511e-05  3.4611787119748135e-05  3.5582412004262005e-05  3.5580604243350608e-05  3.5081756978785791e-05  3.4354540189735950e-05  3.3633536063860613e-05  3.2926732619889887e-05  3.2250945082946687e-05  3.1598909880552160e-05  3.0965879255609787e-05  3.0344535819913649e-05  2.9728644503012622e-05  2.9112373951171334e-05  2.8490876403992689e-05  2.7860284551727813e-05  2.7217877217948052e-05  2.6562070592037245e-05  2.5892085953016794e-05  2.5206046892844624e-05  2.4501048592869374e-05  2.3761097008391529e-05  2.2972328953224150e-05  2.1946669488982152e-05  2.0456906165297108e-05  1.8457744713752758e-05  1.6146017825390406e-05  1.3853768923367697e-05  1.1720274778940828e-05  9.7505812243782916e-06  7.9322932698808239e-06  6.2525652507297680e-06  4.7007757086834636e-06  3.2694258853303032e-06  1.9542975524865989e-06  7.5411286252460348e-07  -3.2992298964230622e-07  -1.2946016120530062e-06  -2.1349455264185985e-06  -2.8448979294926709e-06  -3.4167899641397525e-06  -3.8448046988868900e-06  -4.1201729396550904e-06  -4.2565690074342229e-06  -4.2582715004432675e-06  -4.3488291482700824e-06  -4.7867036782830736e-06  -6.0200721288161373e-06  -5.8424805053012950e-06  3.4903386101821983e-05  3.4633132549163328e-05  3.5604019175948766e-05  3.5602023854728145e-05  3.5102718531775641e-05  3.4374932106936374e-05  3.3653455982573678e-05  3.2946339899033838e-05  3.2270476868448132e-05  3.1618664246708277e-05  3.0986228999136573e-05  3.0365921406253990e-05  2.9751575196827482e-05  2.9137427313885118e-05  2.8518705777008095e-05  2.7891634285878528e-05  2.7253606841587334e-05  2.6603188239996987e-05  2.5939706280511438e-05  2.5261702372191255e-05  2.4565219639687886e-05  2.3836534464481949e-05  2.3070243931881470e-05  2.2059873489072610e-05  2.0536723345227304e-05  1.8486144759396590e-05  1.6091952431887649e-05  1.3742552546436507e-05  1.1608010123581431e-05  9.6463996028953110e-06  7.8382406508129183e-06  6.1682675476059021e-06  4.6254019186156347e-06  3.2020232149070416e-06  1.8939577270743200e-06  7.0005323632157739e-07  -3.7834360246711901e-07  -1.3379018854473574e-06  -2.1735540629968657