<?xml version="1.0"?>
<VTKFile type="UnstructuredGrid"  version="0.1"  >
<UnstructuredGrid>
<Piece  NumberOfPoints="1617" NumberOfCells="3072">
<Points>
<DataArray  type="Float64"  NumberOfComponents="3"  format="ascii">0 0 0  0.03125 0 0  0.0625 0 0  0.09375 0 0  0.125 0 0  0.15625 0 0  0.1875 0 0  0.21875 0 0  0.25 0 0  0.28125 0 0  0.3125 0 0  0.34375 0 0  0.375 0 0  0.40625 0 0  0.4375 0 0  0.46875 0 0  0.5 0 0  0.53125 0 0  0.5625 0 0  0.59375 0 0  0.625 0 0  0.65625 0 0  0.6875 0 0  0.71875 0 0  0.75 0 0  0.78125 0 0  0.8125 0 0  0.84375 0 0  0.875 0 0  0.90625 0 0  0.9375 0 0  0.96875 0 0  1 0 0  1.03125 0 0  1.0625 0 0  1.09375 0 0  1.125 0 0  1.15625 0 0  1.1875 0 0  1.21875 0 0  1.25 0 0  1.28125 0 0  1.3125 0 0  1.34375 0 0  1.375 0 0  1.40625 0 0  1.4375 0 0  1.46875 0 0  1.5 0 0  0 0.03125 0  0.03125 0.03125 0  0.0625 0.03125 0  0.09375 0.03125 0  0.125 0.03125 0  0.15625 0.03125 0  0.1875 0.03125 0  0.21875 0.03125 0  0.25 0.03125 0  0.28125 0.03125 0  0.3125 0.03125 0  0.34375 0.03125 0  0.375 0.03125 0  0.40625 0.03125 0  0.4375 0.03125 0  0.46875 0.03125 0  0.5 0.03125 0  0.53125 0.03125 0  0.5625 0.03125 0  0.59375 0.03125 0  0.625 0.03125 0  0.65625 0.03125 0  0.6875 0.03125 0  0.71875 0.03125 0  0.75 0.03125 0  0.78125 0.03125 0  0.8125 0.03125 0  0.84375 0.03125 0  0.875 0.03125 0  0.90625 0.03125 0  0.9375 0.03125 0  0.96875 0.03125 0  1 0.03125 0  1.03125 0.03125 0  1.0625 0.03125 0  1.09375 0.03125 0  1.125 0.03125 0  1.15625 0.03125 0  1.1875 0.03125 0  1.21875 0.03125 0  1.25 0.03125 0  1.28125 0.03125 0  1.3125 0.03125 0  1.34375 0.03125 0  1.375 0.03125 0  1.40625 0.03125 0  1.4375 0.03125 0  1.46875 0.03125 0  1.5 0.03125 0  0 0.0625 0  0.03125 0.0625 0  0.0625 0.0625 0  0.09375 0.0625 0  0.125 0.0625 0  0.15625 0.0625 0  0.1875 0.0625 0  0.21875 0.0625 0  0.25 0.0625 0  0.28125 0.0625 0  0.3125 0.0625 0  0.34375 0.0625 0  0.375 0.0625 0  0.40625 0.0625 0  0.4375 0.0625 0  0.46875 0.0625 0  0.5 0.0625 0  0.53125 0.0625 0  0.5625 0.0625 0  0.59375 0.0625 0  0.625 0.0625 0  0.65625 0.0625 0  0.6875 0.0625 0  0.71875 0.0625 0  0.75 0.0625 0  0.78125 0.0625 0  0.8125 0.0625 0  0.84375 0.0625 0  0.875 0.0625 0  0.90625 0.0625 0  0.9375 0.0625 0  0.96875 0.0625 0  1 0.0625 0  1.03125 0.0625 0  1.0625 0.0625 0  1.09375 0.0625 0  1.125 0.0625 0  1.15625 0.0625 0  1.1875 0.0625 0  1.21875 0.0625 0  1.25 0.0625 0  1.28125 0.0625 0  1.3125 0.0625 0  1.34375 0.0625 0  1.375 0.0625 0  1.40625 0.0625 0  1.4375 0.0625 0  1.46875 0.0625 0  1.5 0.0625 0  0 0.09375 0  0.03125 0.09375 0  0.0625 0.09375 0  0.09375 0.09375 0  0.125 0.09375 0  0.15625 0.09375 0  0.1875 0.09375 0  0.21875 0.09375 0  0.25 0.09375 0  0.28125 0.09375 0  0.3125 0.09375 0  0.34375 0.09375 0  0.375 0.09375 0  0.40625 0.09375 0  0.4375 0.09375 0  0.46875 0.09375 0  0.5 0.09375 0  0.53125 0.09375 0  0.5625 0.09375 0  0.59375 0.09375 0  0.625 0.09375 0  0.65625 0.09375 0  0.6875 0.09375 0  0.71875 0.09375 0  0.75 0.09375 0  0.78125 0.09375 0  0.8125 0.09375 0  0.84375 0.09375 0  0.875 0.09375 0  0.90625 0.09375 0  0.9375 0.09375 0  0.96875 0.09375 0  1 0.09375 0  1.03125 0.09375 0  1.0625 0.09375 0  1.09375 0.09375 0  1.125 0.09375 0  1.15625 0.09375 0  1.1875 0.09375 0  1.21875 0.09375 0  1.25 0.09375 0  1.28125 0.09375 0  1.3125 0.09375 0  1.34375 0.09375 0  1.375 0.09375 0  1.40625 0.09375 0  1.4375 0.09375 0  1.46875 0.09375 0  1.5 0.09375 0  0 0.125 0  0.03125 0.125 0  0.0625 0.125 0  0.09375 0.125 0  0.125 0.125 0  0.15625 0.125 0  0.1875 0.125 0  0.21875 0.125 0  0.25 0.125 0  0.28125 0.125 0  0.3125 0.125 0  0.34375 0.125 0  0.375 0.125 0  0.40625 0.125 0  0.4375 0.125 0  0.46875 0.125 0  0.5 0.125 0  0.53125 0.125 0  0.5625 0.125 0  0.59375 0.125 0  0.625 0.125 0  0.65625 0.125 0  0.6875 0.125 0  0.71875 0.125 0  0.75 0.125 0  0.78125 0.125 0  0.8125 0.125 0  0.84375 0.125 0  0.875 0.125 0  0.90625 0.125 0  0.9375 0.125 0  0.96875 0.125 0  1 0.125 0  1.03125 0.125 0  1.0625 0.125 0  1.09375 0.125 0  1.125 0.125 0  1.15625 0.125 0  1.1875 0.125 0  1.21875 0.125 0  1.25 0.125 0  1.28125 0.125 0  1.3125 0.125 0  1.34375 0.125 0  1.375 0.125 0  1.40625 0.125 0  1.4375 0.125 0  1.46875 0.125 0  1.5 0.125 0  0 0.15625 0  0.03125 0.15625 0  0.0625 0.15625 0  0.09375 0.15625 0  0.125 0.15625 0  0.15625 0.15625 0  0.1875 0.15625 0  0.21875 0.15625 0  0.25 0.15625 0  0.28125 0.15625 0  0.3125 0.15625 0  0.34375 0.15625 0  0.375 0.15625 0  0.40625 0.15625 0  0.4375 0.15625 0  0.46875 0.15625 0  0.5 0.15625 0  0.53125 0.15625 0  0.5625 0.15625 0  0.59375 0.15625 0  0.625 0.15625 0  0.65625 0.15625 0  0.6875 0.15625 0  0.71875 0.15625 0  0.75 0.15625 0  0.78125 0.15625 0  0.8125 0.15625 0  0.84375 0.15625 0  0.875 0.15625 0  0.90625 0.15625 0  0.9375 0.15625 0  0.96875 0.15625 0  1 0.15625 0  1.03125 0.15625 0  1.0625 0.15625 0  1.09375 0.15625 0  1.125 0.15625 0  1.15625 0.15625 0  1.1875 0.15625 0  1.21875 0.15625 0  1.25 0.15625 0  1.28125 0.15625 0  1.3125 0.15625 0  1.34375 0.15625 0  1.375 0.15625 0  1.40625 0.15625 0  1.4375 0.15625 0  1.46875 0.15625 0  1.5 0.15625 0  0 0.1875 0  0.03125 0.1875 0  0.0625 0.1875 0  0.09375 0.1875 0  0.125 0.1875 0  0.15625 0.1875 0  0.1875 0.1875 0  0.21875 0.1875 0  0.25 0.1875 0  0.28125 0.1875 0  0.3125 0.1875 0  0.34375 0.1875 0  0.375 0.1875 0  0.40625 0.1875 0  0.4375 0.1875 0  0.46875 0.1875 0  0.5 0.1875 0  0.53125 0.1875 0  0.5625 0.1875 0  0.59375 0.1875 0  0.625 0.1875 0  0.65625 0.1875 0  0.6875 0.1875 0  0.71875 0.1875 0  0.75 0.1875 0  0.78125 0.1875 0  0.8125 0.1875 0  0.84375 0.1875 0  0.875 0.1875 0  0.90625 0.1875 0  0.9375 0.1875 0  0.96875 0.1875 0  1 0.1875 0  1.03125 0.1875 0  1.0625 0.1875 0  1.09375 0.1875 0  1.125 0.1875 0  1.15625 0.1875 0  1.1875 0.1875 0  1.21875 0.1875 0  1.25 0.1875 0  1.28125 0.1875 0  1.3125 0.1875 0  1.34375 0.1875 0  1.375 0.1875 0  1.40625 0.1875 0  1.4375 0.1875 0  1.46875 0.1875 0  1.5 0.1875 0  0 0.21875 0  0.03125 0.21875 0  0.0625 0.21875 0  0.09375 0.21875 0  0.125 0.21875 0  0.15625 0.21875 0  0.1875 0.21875 0  0.21875 0.21875 0  0.25 0.21875 0  0.28125 0.21875 0  0.3125 0.21875 0  0.34375 0.21875 0  0.375 0.21875 0  0.40625 0.21875 0  0.4375 0.21875 0  0.46875 0.21875 0  0.5 0.21875 0  0.53125 0.21875 0  0.5625 0.21875 0  0.59375 0.21875 0  0.625 0.21875 0  0.65625 0.21875 0  0.6875 0.21875 0  0.71875 0.21875 0  0.75 0.21875 0  0.78125 0.21875 0  0.8125 0.21875 0  0.84375 0.21875 0  0.875 0.21875 0  0.90625 0.21875 0  0.9375 0.21875 0  0.96875 0.21875 0  1 0.21875 0  1.03125 0.21875 0  1.0625 0.21875 0  1.09375 0.21875 0  1.125 0.21875 0  1.15625 0.21875 0  1.1875 0.21875 0  1.21875 0.21875 0  1.25 0.21875 0  1.28125 0.21875 0  1.3125 0.21875 0  1.34375 0.21875 0  1.375 0.21875 0  1.40625 0.21875 0  1.4375 0.21875 0  1.46875 0.21875 0  1.5 0.21875 0  0 0.25 0  0.03125 0.25 0  0.0625 0.25 0  0.09375 0.25 0  0.125 0.25 0  0.15625 0.25 0  0.1875 0.25 0  0.21875 0.25 0  0.25 0.25 0  0.28125 0.25 0  0.3125 0.25 0  0.34375 0.25 0  0.375 0.25 0  0.40625 0.25 0  0.4375 0.25 0  0.46875 0.25 0  0.5 0.25 0  0.53125 0.25 0  0.5625 0.25 0  0.59375 0.25 0  0.625 0.25 0  0.65625 0.25 0  0.6875 0.25 0  0.71875 0.25 0  0.75 0.25 0  0.78125 0.25 0  0.8125 0.25 0  0.84375 0.25 0  0.875 0.25 0  0.90625 0.25 0  0.9375 0.25 0  0.96875 0.25 0  1 0.25 0  1.03125 0.25 0  1.0625 0.25 0  1.09375 0.25 0  1.125 0.25 0  1.15625 0.25 0  1.1875 0.25 0  1.21875 0.25 0  1.25 0.25 0  1.28125 0.25 0  1.3125 0.25 0  1.34375 0.25 0  1.375 0.25 0  1.40625 0.25 0  1.4375 0.25 0  1.46875 0.25 0  1.5 0.25 0  0 0.28125 0  0.03125 0.28125 0  0.0625 0.28125 0  0.09375 0.28125 0  0.125 0.28125 0  0.15625 0.28125 0  0.1875 0.28125 0  0.21875 0.28125 0  0.25 0.28125 0  0.28125 0.28125 0  0.3125 0.28125 0  0.34375 0.28125 0  0.375 0.28125 0  0.40625 0.28125 0  0.4375 0.28125 0  0.46875 0.28125 0  0.5 0.28125 0  0.53125 0.28125 0  0.5625 0.28125 0  0.59375 0.28125 0  0.625 0.28125 0  0.65625 0.28125 0  0.6875 0.28125 0  0.71875 0.28125 0  0.75 0.28125 0  0.78125 0.28125 0  0.8125 0.28125 0  0.84375 0.28125 0  0.875 0.28125 0  0.90625 0.28125 0  0.9375 0.28125 0  0.96875 0.28125 0  1 0.28125 0  1.03125 0.28125 0  1.0625 0.28125 0  1.09375 0.28125 0  1.125 0.28125 0  1.15625 0.28125 0  1.1875 0.28125 0  1.21875 0.28125 0  1.25 0.28125 0  1.28125 0.28125 0  1.3125 0.28125 0  1.34375 0.28125 0  1.375 0.28125 0  1.40625 0.28125 0  1.4375 0.28125 0  1.46875 0.28125 0  1.5 0.28125 0  0 0.3125 0  0.03125 0.3125 0  0.0625 0.3125 0  0.09375 0.3125 0  0.125 0.3125 0  0.15625 0.3125 0  0.1875 0.3125 0  0.21875 0.3125 0  0.25 0.3125 0  0.28125 0.3125 0  0.3125 0.3125 0  0.34375 0.3125 0  0.375 0.3125 0  0.40625 0.3125 0  0.4375 0.3125 0  0.46875 0.3125 0  0.5 0.3125 0  0.53125 0.3125 0  0.5625 0.3125 0  0.59375 0.3125 0  0.625 0.3125 0  0.65625 0.3125 0  0.6875 0.3125 0  0.71875 0.3125 0  0.75 0.3125 0  0.78125 0.3125 0  0.8125 0.3125 0  0.84375 0.3125 0  0.875 0.3125 0  0.90625 0.3125 0  0.9375 0.3125 0  0.96875 0.3125 0  1 0.3125 0  1.03125 0.3125 0  1.0625 0.3125 0  1.09375 0.3125 0  1.125 0.3125 0  1.15625 0.3125 0  1.1875 0.3125 0  1.21875 0.3125 0  1.25 0.3125 0  1.28125 0.3125 0  1.3125 0.3125 0  1.34375 0.3125 0  1.375 0.3125 0  1.40625 0.3125 0  1.4375 0.3125 0  1.46875 0.3125 0  1.5 0.3125 0  0 0.34375 0  0.03125 0.34375 0  0.0625 0.34375 0  0.09375 0.34375 0  0.125 0.34375 0  0.15625 0.34375 0  0.1875 0.34375 0  0.21875 0.34375 0  0.25 0.34375 0  0.28125 0.34375 0  0.3125 0.34375 0  0.34375 0.34375 0  0.375 0.34375 0  0.40625 0.34375 0  0.4375 0.34375 0  0.46875 0.34375 0  0.5 0.34375 0  0.53125 0.34375 0  0.5625 0.34375 0  0.59375 0.34375 0  0.625 0.34375 0  0.65625 0.34375 0  0.6875 0.34375 0  0.71875 0.34375 0  0.75 0.34375 0  0.78125 0.34375 0  0.8125 0.34375 0  0.84375 0.34375 0  0.875 0.34375 0  0.90625 0.34375 0  0.9375 0.34375 0  0.96875 0.34375 0  1 0.34375 0  1.03125 0.34375 0  1.0625 0.34375 0  1.09375 0.34375 0  1.125 0.34375 0  1.15625 0.34375 0  1.1875 0.34375 0  1.21875 0.34375 0  1.25 0.34375 0  1.28125 0.34375 0  1.3125 0.34375 0  1.34375 0.34375 0  1.375 0.34375 0  1
[...]
<PointData  Scalars="f_33"> 
<DataArray  type="Float64"  Name="f_33"  format="ascii">2.0400460660702690e-05  1.8939095260248589e-05  1.6480472596934556e-05  1.3956258980150289e-05  1.1545020710435203e-05  9.2765811796500875e-06  7.1598902620699551e-06  5.1956243916650190e-06  3.3801155685516063e-06  1.7078977699442563e-06  1.7292538709360937e-07  -1.2308965121942632e-06  -2.5095070052211584e-06  -3.6686107178205824e-06  -4.7136383870220335e-06  -5.6497158141782634e-06  -6.4816335081462622e-06  -7.2138160471088274e-06  -7.8502909778140391e-06  -8.3946564086648308e-06  -8.8500459859968555e-06  -9.2190901973596361e-06  -9.5038740162355899e-06  -9.7058926003501947e-06  -9.8260086125303078e-06  -9.8644160939412516e-06  -9.8206160807903168e-06  -9.6934080654471539e-06  -9.4808992057735000e-06  -9.1805305518384618e-06  -8.7891172397570059e-06  -8.3028982253033907e-06  -7.7175907774914184e-06  -7.0284456402425198e-06  -6.2302995286280261e-06  -5.3176230678862070e-06  -4.2845611492375225e-06  -3.1249654010604569e-06  -1.8324087846854370e-06  -4.0019161484121792e-07  1.1786709315696660e-06  2.9114525623811696e-06  4.8052640507360541e-06  6.8680666677288886e-06  9.1020405503067159e-06  1.1519988186748968e-05  1.4150546961581843e-05  1.6837357948470159e-05  1.7872998126108977e-05  2.0777018216119861e-05  1.9234234055656349e-05  1.6512832680352479e-05  1.3887116761125028e-05  1.1446606275701845e-05  9.1709451052684181e-06  7.0536602693471138e-06  5.0918695991286845e-06  3.2803136344030808e-06  1.6127291756955389e-06  8.2629784628411947e-08  -1.3163257300401582e-06  -2.5902145641865659e-06  -3.7448209088488538e-06  -4.7856242901787801e-06  -5.7177829837680398e-06  -6.5461111040357062e-06  -7.2750521196575115e-06  -7.9086504456486797e-06  -8.4505209723901451e-06  -8.9038153420258126e-06  -9.2711837782383513e-06  -9.5547323098330844e-06  -9.7559770694567845e-06  -9.8757994654350518e-06  -9.9144076448543247e-06  -9.8713100475682612e-06  -9.7453056612193093e-06  -9.5344931038094399e-06  -9.2362976734245832e-06  -8.8475129093265851e-06  -8.3643517029549876e-06  -7.7825016754055541e-06  -7.0971802779006077e-06  -6.3031859057569705e-06  -5.3949423789226806e-06  -4.3665328538741771e-06  -3.2117196766937957e-06  -1.9239378171112237e-06  -4.9626166619155638e-07  1.0786671004473723e-06  2.8087266289165213e-06  4.7020830509887013e-06  6.7683033476951917e-06  9.0137194456771528e-06  1.1462814583786674e-05  1.4164450941259213e-05  1.7049620555540367e-05  1.8451246034208130e-05  2.1508747909427740e-05  1.9803976822010127e-05  1.6725326760503058e-05  1.3896149625494958e-05  1.1354598504724981e-05  9.0295593033733579e-06  6.8862913976768188e-06  4.9119592480579846e-06  3.0957033841957521e-06  1.4281646426767891e-06  -9.9010305005224320e-08  -1.4933357468080955e-06  -2.7616401600482698e-06  -3.9101982574918129e-06  -4.9448188244608657e-06  -5.8708888348164059e-06  -6.6933875193397681e-06  -7.4168831461753491e-06  -8.0455201141395167e-06  -8.5829992664498528e-06  -9.0325514225690078e-06  -9.3969030775895627e-06  -9.6782339170521857e-06  -9.8781279329044732e-06  -9.9975227811942187e-06  -1.0036664424574326e-05  -9.9950748298456365e-06  -9.8715389288083939e-06  -9.6641135826624042e-06  -9.3701571286363860e-06  -8.9863745882155874e-06  -8.5088717389673249e-06  -7.9332110119795283e-06  -7.2544631738485499e-06  -6.4672495513002253e-06  -5.5657700281940504e-06  -4.5438089573546813e-06  -3.3947089982838650e-06  -2.1112885028959766e-06  -6.8568804739932522e-07  8.9089813593665234e-07  2.6286159531883813e-06  4.5392954935374106e-06  6.6388628894604078e-06  8.9449378180194168e-06  1.1507266004571570e-05  1.4403555130759101e-05  1.7565182365476516e-05  1.9180078795360664e-05  2.2369541327235752e-05  2.0527480531440091e-05  1.7133284298360905e-05  1.4050256083695430e-05  1.1342158852787577e-05  8.9159104611698472e-06  6.7103619196220345e-06  4.6990463575822366e-06  2.8618737284209729e-06  1.1839200192085925e-06  -3.4675813577937585e-07  -1.7400615747686096e-06  -3.0044303048840155e-06  -4.1472452254029132e-06  -5.1750880764098777e-06  -6.0938968740347441e-06  -6.9090526736560222e-06  -7.6254250927537372e-06  -8.2473933287740758e-06  -8.7788507493299921e-06  -9.2231953696555879e-06  -9.5833056504808159e-06  -9.8615010127997332e-06  -1.0059489039632723e-05  -1.0178305567771617e-05  -1.0218257832526972e-05  -1.0178882257183478e-05  -1.0058926127200397e-05  -9.8563568779828525e-06  -9.5683962054753839e-06  -9.1915710320520546e-06  -8.7217709607482111e-06  -8.1543020065658433e-06  -7.4839280371851737e-06  -6.7048922921048055e-06  -5.8109109850278259e-06  -4.7951256937654086e-06  -3.6499956880590554e-06  -2.3670917317515469e-06  -9.3675744178451955e-07  6.5243759780272614e-07  2.4145137823316529e-06  4.3670811284617094e-06  6.5348556236477129e-06  8.9481949050058680e-06  1.1674219211174929e-05  1.4797228057947260e-05  1.8213334167890225e-05  1.9981547963790043e-05  2.3242342911611621e-05  2.1307508986433653e-05  1.7670023873245352e-05  1.4342080804951861e-05  1.1439687483240180e-05  8.8754561528945288e-06  6.5748893364371560e-06  4.5004416047123791e-06  2.6224808710391995e-06  9.1949583408467891e-07  -6.2516528730648737e-07  -2.0247568032515601e-06  -3.2901112331048394e-06  -4.4303310323179665e-06  -5.4532478733472023e-06  -6.3657170982453514e-06  -7.1738016693431278e-06  -7.8828869618615384e-06  -8.4977525554847461e-06  -9.0226148515944575e-06  -9.4611453882641615e-06  -9.8164644323780186e-06  -1.0091108271072296e-05  -1.0286971896513858e-05  -1.0405235496910095e-05  -1.0446290114879516e-05  -1.0409680692091463e-05  -1.0294080898442852e-05  -1.0097304780877546e-05  -9.8163495048867481e-06  -9.4474556508681982e-06  -8.9861688479626959e-06  -8.4273880435929780e-06  -7.7653889768312824e-06  -6.9938130827803347e-06  -6.1056110882264729e-06  -5.0929233271661976e-06  -3.9468706600597050e-06  -2.6572072820127835e-06  -1.2117903854803754e-06  4.0422035958604868e-07  2.2094924927328030e-06  4.2278477960794658e-06  6.4919587838697825e-06  9.0408279355446313e-06  1.1947750508381864e-05  1.5287872723633057e-05  1.8916700864896799e-05  2.0795339236243856e-05  2.4083733007322022e-05  2.2084382127202413e-05  1.8264156514155047e-05  1.4724491897455843e-05  1.1631046388016174e-05  8.9140014572857383e-06  6.4981040075874617e-06  4.3403192901927738e-06  2.4039397581399802e-06  6.6150547181531451e-07  -9.0847900776329108e-07  -2.3230203023743536e-06  -3.5958083089719021e-06  -4.7381115862499830e-06  -5.7594007590416920e-06  -6.6677734629906817e-06  -7.4702383818501283e-06  -8.1729071043469308e-06  -8.7811264129844820e-06  -9.2995692666749607e-06  -9.7322909028967904e-06  -1.0082748319498597e-05  -1.0353778542028352e-05  -1.0547535346186536e-05  -1.0665395288049865e-05  -1.0707856673054456e-05  -1.0674461023371517e-05  -1.0563760160088654e-05  -1.0373335415350470e-05  -1.0099857183970296e-05  -9.7391614242970719e-06  -9.2863179692562196e-06  -8.7356706302234850e-06  -8.0808358216154415e-06  -7.3146497620267215e-06  -6.4290531706604385e-06  -5.4148938929362601e-06  -4.2616188907941685e-06  -2.9568051228313293e-06  -1.4854888359710549e-06  1.7077528672519959e-07  2.0351261307537534e-06  4.1366025644322146e-06  6.5132342108162323e-06  9.2074740958281188e-06  1.2290640049658580e-05  1.5821947430281235e-05  1.9619978437297305e-05  2.1576731878063292e-05  2.4872718079672437e-05  2.2826606918985525e-05  1.8868043052950463e-05  1.5153681618337858e-05  1.1887257152534933e-05  9.0191606318750562e-06  6.4804429226623038e-06  4.2276894924707172e-06  2.2204793862258771e-06  4.2703566932008698e-07  -1.1782915538703170e-06  -2.6160792591733403e-06  -3.9029543899990569e-06  -5.0525458312786453e-06  -6.0761929016294614e-06  -6.9834609591586786e-06  -7.7825065019537390e-06  -8.4803391022248429e-06  -9.0830143600174655e-06  -9.5957781694159563e-06  -1.0023168442278748e-05  -1.0369068777813474e-05  -1.0636702519884115e-05  -1.0828560623057785e-05  -1.0946275734018287e-05  -1.0990479142133967e-05  -1.0960690034425697e-05  -1.0855275342578007e-05  -1.0671487780873581e-05  -1.0405557644137243e-05  -1.0052797483548773e-05  -9.6076815504962407e-06  -9.0638752115324971e-06  -8.4142025452423049e-06  -7.6505460569356640e-06  -6.7636710281189688e-06  -5.7429576091006307e-06  -4.5760154380280683e-06  -3.2481375801916131e-06  -1.7415718983819417e-06  -3.4581001709988589e-08  1.8996262119641148e-06  4.0936552590327758e-06  6.5880440232195276e-06  9.4246023498040853e-06  1.2668241631580035e-05  1.6361101976298755e-05  2.0292035494744522e-05  2.2305385633283103e-05  2.5598498365502537e-05  2.3517245713540188e-05  1.9452297077186201e-05  1.5596007122831704e-05  1.2179595822534655e-05  9.1717530768651099e-06  6.5124315397759803e-06  4.1611709535490256e-06  2.0767185258804121e-06  2.2483211544363232e-07  -1.4231848747672109e-06  -2.8909045454864205e-06  -4.1976512793940012e-06  -5.3593670544480212e-06  -6.3893154782430531e-06  -7.2986325897371569e-06  -8.0967395082847865e-06  -8.7916556287283683e-06  -9.3902434055185766e-06  -9.8984050814892387e-06  -1.0321235606630605e-05  -1.0663120163333618e-05  -1.0927751299083703e-05  -1.1118043987786000e-05  -1.1235958815072264e-05  -1.1282290269404136e-05  -1.1256506035098277e-05  -1.1156703373092967e-05  -1.0979688926305070e-05  -1.0721130358855451e-05  -1.0375707510972651e-05  -9.9372075172588681e-06  -9.3985384174856453e-06  -8.7516580985828102e-06  -7.9874225793803354e-06  -7.0953541821332975e-06  -6.0633190780154956e-06  -4.8770966695439162e-06  -3.5198107557855463e-06  -1.9712262790608038e-06  -2.0692833667749884e-07  1.8024541236955824e-06  4.0914227819727283e-06  6.7007342260859691e-06  9.6690475515872559e-06  1.3053217222816424e-05  1.6879924052953633e-05  2.0915420203877474e-05  2.2971090179690054e-05  2.6255081699757625e-05  2.4146738375055328e-05  1.9998778175239674e-05  1.6027740410474509e-05  1.2484421596741616e-05  9.3524892587084622e-06  6.5809365705947436e-06  4.1338832070990598e-06  1.9711735981933556e-06  5.7681616017695481e-08  -1.6371858074931210e-06  -3.1392564879154440e-06  -4.4701183058562017e-06  -5.6478004390186220e-06  -6.6873988459315868e-06  -7.6016077297678156e-06  -8.4011419713062115e-06  -9.0950763508057676e-06  -9.6911266371970235e-06  -1.0195892595641652e-05  -1.0615065354821783e-05  -1.0953582397691253e-05  -1.1215681931643055e-05  -1.1404803027049934e-05  -1.1523327818198959e-05  -1.1572252851494669e-05  -1.1550946924131608e-05  -1.1457115879431426e-05  -1.1286970537021389e-05  -1.1035485604174072e-05  -1.0696620893936126e-05  -1.0263430687061284e-05  -9.7280480219918420e-06  -9.0815624577803597e-06  -8.3138129153849395e-06  -7.4131071690342145e-06  -6.3658650885653791e-06  -5.1561769799160825e-06  -3.7652614705586965e-06  -2.1708521031391258e-06  -3.4656869889759102e-07  1.7385059340148045e-06  4.1194173516817546e-06  6.8356303244012629e-06  9.9214812717641933e-06  1.3425766037579142e-05  1.7362256302506458e-05  2.1480495298534236e-05  2.3568658323289093e-05  2.6838966609833800e-05  2.4709435867400844e-05  2.0496069393754003e-05  1.6432515305183806e-05  1.2783554374357858e-05  9.5445353493282143e-06  6.6725358684381398e-06  4.1366816226477796e-06  1.8989603726438515e-06  -7.5514276688443887e-08  -1.8182646398131980e-06  -3.3566476595944498e-06  -4.7140100052479120e-06  -5.9101423426463073e-06  -6.9617794342843267e-06  -7.8830704610131894e-06  -8.6859780572267429e-06  -9.3806175876041123e-06  -9.9755552157553549e-06  -1.0478085332117701e-05  -1.0894491534733728e-05  -1.1230279886605421e-05  -1.1490298995299778e-05  -1.1678634851771849e-05  -1.1798227022822976e-05  -1.1850329906873040e-05  -1.1834129946402345e-05  -1.1746752466736282e-05  -1.1583612848019329e-05  -1.1338860494654805e-05  -1.1005690424017441e-05  -1.0576445627925398e-05  -1.0042541466170269e-05  -9.3942722762661172e-06  -8.6205447206446746e-06  -7.7085587983623929e-06  -6.6434383468237969e-06  -5.4078089827613004e-06  -3.9813200118273548e-06  -2.3401597341754712e-06  -4.5664800230668210e-07  1.7008392949206531e-06  4.1669602160560962e-06  6.9790770019059074e-06  1.0166941173374452e-05  1.3772101740356326e-05  1.7798016760407913e-05  2.1982015168833279e-05  2.4095570091655404e-05  2.7348012553825959e-05  2.5201844627677594e-05  2.0936811477437740e-05  1.6799059660733544e-05  1.3063435232124426e-05  9.7341738448659746e-06  6.7751131277837719e-06  4.1601171067071160e-06  1.8537147673724637e-06  -1.7807072238003735e-07  -1.9669888676925290e-06  -3.5413132706256930e-06  -4.9256647211260033e-06  -6.1412382346699126e-06  -7.2061589063651952e-06  -8.1358672036414327e-06  -8.9434715284198718e-06  -9.6400660481054369e-06  -1.0235025701642501e-05  -1.0736299019563628e-05  -1.1150711968123844e-05  -1.1484308465471889e-05  -1.1742586159579229e-05  -1.1930438753584465e-05  -1.2051585432338217e-05  -1.2107626566364620e-05  -1.2097405904016436e-05  -1.2017154296449410e-05  -1.1861221532806209e-05  -1.1622820693751874e-05  -1.1294417793542825e-05  -1.0867760256751113e-05  -1.0333686000897049e-05  -9.6818346244351899e-06  -8.9003219583025233e-06  -7.9753976527775079e-06  -6.8910849578962485e-06  -5.6288027996897329e-06  -4.1669747639620745e-06  -2.4806882232348733e-06  -5.4150372936982401e-07  1.6823157912708754e-06  4.2245022534018049e-06  7.1200280426838354e-06  1.0394336356357879e-05  1.4082851176090340e-05  1.8181010470236109e-05  2.2417249665394609e-05  2.4550809418029191e-05  2.7780862080352889e-05  2.5621720406084993e-05  2.1316140784967750e-05  1.7119553620901045e-05  1.3314087169926284e-05  9.9106277860402868e-06  6.8784230397371113e-06  4.1954667245483699e-06  1.8288053327155841e-06  -2.5432463590077713e-07  -2.0854575838046218e-06  -3.6933242314801552e-06  -5.1034060645902101e-06  -6.3379606497721925e-06  -7.4162368000051151e-06  -8.3547682852810143e-06  -9.1676693212457754e-06  -9.8669185735606264e-06  -1.0462634496111205e-05  -1.0963357502706028e-05  -1.1376365325754996e-05  -1.1708149379979588e-05  -1.1964824315517591e-05  -1.2152312654013527e-05  -1.2275515697389743e-05  -1.2336521133649961e-05  -1.2333500058739044e-05  -1.2261250681801123e-05  -1.2112712917763308e-05  -1.1880142461789562e-05  -1.1555457046907733e-05  -1.1130043549076621e-05  -1.0594377662974748e-05  -9.9376276066597810e-06  -9.1472861178918529e-06  -8.2088280663763952e-06  -7.1053814937506968e-06  -5.8174110082187654e-06  -4.3224233397298446e-06  -2.5947669499050670e-06  -6.0563353649174484e-07  1.6764663823652459e-06  4.2841129259534097e-06  7.2499511198521874e-06  1.0595672423984315e-05  1.4351745512781346e-05  1.8507500645792754e-05  2.2784919813302863e-05  2.4934209775254346e-05  2.8136630646741866e-05  2.5967582259374166e-05  2.1630779705081019e-05  1.7388536751713297e-05  1.3528230787900035e-05  1.0065634886449057e-05  6.9741671472715473e-06  4.2352074030932638e-06  1.8180453157359449e-06  -3.0882807516835775e-07  -2.1765063626962622e-06  -3.8138696729907178e-06  -5.2469371633039374e-06  -6.4987280048919973e-06  -7.5893537898222027e-06  -8.5362272180643008e-06  -9.3543018792458938e-06  -1.0056321973493684e-05  -1.0653071668778010e-05  -1.1153622030908684e-05  -1.1565599926950042e-05  -1.1895799352027150e-05  -1.2150726961375321e-05  -1.2337657695771265e-05  -1.2463433517508671e-05  -1.2530823458988840e-05  -1.2536642305010258e-05  -1.2473354050521188e-05  -1.2332141942231426e-05  -1.2104527349514986e-05  -1.1782285374861010e-05  -1.1356791384783234e-05  -1.0818406381278728e-05  -1.0156007492822302e-05  -9.3566205431948997e-06  -8.4051090379802152e-06  -7.2838950573073595e-06  -5.9727118281055934e-06  -4.4484029974366415e-06  -2.6848463415996379e-06  -6.5311243578151500e-07  1.6778729896505965e-06  4.3395388607109449e-06  7.3624798722030559e-06  1.0765314262688026e-05  1.4574657928825081e-05  1.8775297966211565e-05  2.3084578467205250e-05  2.5246067457233384e-05  2.8414733948435345e-05  2.6238441604617937e-05  2.1878502230703223e-05  1.7602201205045868e-05  1.3700619600180507e-05  1.0193011762080658e-05  7.0558704309078814e-06  4.2731877408933902e-06  1.8160852696742188e-06  -3.4582481490641732e-07  -2.2431342144668303e-06  -3.9046954513599235e-06  -5.3568318435487457e-06  -6.6230741632656665e-06  -7.7241549663559885e-06  -8.6781463248730359e-06  -9.5006533605160097e-06  -1.0205038848729695e-05  -1.0802655850479800e-05  -1.1303054628951638e-05  -1.1714157965102584e-05  -1.2042935481085727e-05  -1.2295632453622158e-05  -1.2481407898552321e-05  -1.2610324334970071e-05  -1.2685981732030110e-05  -1.2702592898427614e-05  -1.2648902632562771e-05  -1.2514234851994987e-05  -1.2290093134242546e-05  -1.1968761689548421e-05  -1.1541974044859706e-05  -1.1000163711808534e-05  -1.0332034812755135e-05  -9.5242587710662380e-06  -8.5612217041177531e-06  -7.4248023978050741e-06  -6.0941897308239672e-06  -4.5457617182679885e-06  -2.7531083647897449e-06  -6.8730901747106399e-07  1.6822725472515887e-06  4.3860665785217188e-06  7.4530160147247319e-06  1.0899380387966309e-05  1.4748922977284091e-05  1.8983173963195396e-05  2.3316225663672917e-05  2.5486887731733748e-05  2.8614790475420598e-05  2.6433647611840740e-05  2.2057817593334871e-05  1.7757942456300711e-05  1.3827572836846410e-05  1.0288293622693586e-05  7.1187063981285642e-06  4.3046572097580612e-06  1.8186200533947627e-06  -3.6891484304091140e-07  -2.2880931246278215e-06  -3.9676654177114479e-06  -5.4341040821529042e-06  -6.7112534599014703e-06  -7.8202526207447130e-06  -8.7796191143817402e-06  -9.6054075116835372e-06  -1.0311417637030644e-05  -1.0909423910121981e-05  -1.1409369870331708e-05  -1.1819522982678441e-05  -1.2147081815674824e-05  -1.2396866724618035e-05  -1.2580794849049929e-05  -1.2713425898176086e-05  -1.2799109824319442e-05  -1.2828160518062207e-05  -1.2783605526535339e-05  -1.2653467125735902e-05  -1.2430682976642185e-05  -1.2108713749214737e-05  -1.1679816814052263e-05  -1.1134516185663056e-05  -1.0461366377460309e-05  -9.6467520976255117e-06  -8.6746940857798435e-06  -7.5266724703039067e-06  -6.1814920931227664e-06  -4.6152189793632931e-06  -2.8012728384090175e-06  -7.1078514988888046e-07  1.6865191759052958e-06  4.4203195699685466e-06  7.5183691359127198e-06  1.0995279491275927e-05  1.4872863672407795e-05  1.9130476696508176e-05  2.3480058541550512e-05  2.5657210482330101e-05  2.8736567559154487e-05  2.6552799496981344e-05  2.2167783903924747e-05  1.7854079617069033e-05  1.3906663201118380e-05  1.0348467957017008e-05  7.1593374083300993e-06  4.3262411343284977e-06  1.8224959710367280e-06  -3.8083739777859591e-07  -2.3135914775257280e-06  -4.0044146133542526e-06  -5.4798351039645795e-06  -6.7638599556944258e-06  -7.8778530035329568e-06  -8.8405833148744369e-06  -9.6683591474802386e-06  -1.0375221548017428e-05  -1.0973169341401470e-05  -1.1472370742615252e-05  -1.1881434920587751e-05  -1.2207871182623728e-05  -1.2454494010117630e-05  -1.2636997225321894e-05  -1.2773194042706553e-05  -1.2867916454356773e-05  -1.2909341937285650e-05  -1.2871647527181190e-05  -1.2742861398781207e-05  -1.2519403335381448e-05  -1.2195934725179563e-05  -1.1764972452070469e-05  -1.1216993460237661e-05  -1.0540388742262523e-05  -9.7213269891903198e-06  -8.7435857472195650e-06  -7.5883948089779180e-06  -6.2343261414779922e-06  -4.6572622530604075e-06  -2.8305281903274805e-06  -7.2529513996494323e-07  1.6884900028533509e-06  4.4400591182073869e-06  7.5564676456401119e-06  1.1051374309961894e-05  1.4945469420644300e-05  1.9216877765589878e-05  2.3576305340397835e-05  2.5757489107806791e-05  2.8779953398894392e-05  2.6595699282866321e-05  2.2207902487592751e-05  1.7889689090421711e-05  1.3936521119032319e-05  1.0371795985618004e-05  7.1757949251574347e-06  4.3359049253745489e-06  1.8257658823485499e-06  -3.8333174584452452e-07  -2.3210841410792819e-06  -4.0160823023082234e-06  -5.4948585084915082e-06  -6.7814665637483224e-06  -7.8973432369868022e-06  -8.8613428701199543e-06  -9.6898607781074681e-06  -1.0397018387021825e-05  -1.0994884008606548e-05  -1.1493702986958840e-05  -1.1902208200131054e-05  -1.2227854349961657e-05  -1.2472824169870119e-05  -1.2654030856585195e-05  -1.2792727861