<?xml version="1.0"?>
<VTKFile type="UnstructuredGrid"  version="0.1"  >
<UnstructuredGrid>
<Piece  NumberOfPoints="1617" NumberOfCells="3072">
<Points>
<DataArray  type="Float64"  NumberOfComponents="3"  format="ascii">0 0 0  0.03125 0 0  0.0625 0 0  0.09375 0 0  0.125 0 0  0.15625 0 0  0.1875 0 0  0.21875 0 0  0.25 0 0  0.28125 0 0  0.3125 0 0  0.34375 0 0  0.375 0 0  0.40625 0 0  0.4375 0 0  0.46875 0 0  0.5 0 0  0.53125 0 0  0.5625 0 0  0.59375 0 0  0.625 0 0  0.65625 0 0  0.6875 0 0  0.71875 0 0  0.75 0 0  0.78125 0 0  0.8125 0 0  0.84375 0 0  0.875 0 0  0.90625 0 0  0.9375 0 0  0.96875 0 0  1 0 0  1.03125 0 0  1.0625 0 0  1.09375 0 0  1.125 0 0  1.15625 0 0  1.1875 0 0  1.21875 0 0  1.25 0 0  1.28125 0 0  1.3125 0 0  1.34375 0 0  1.375 0 0  1.40625 0 0  1.4375 0 0  1.46875 0 0  1.5 0 0  0 0.03125 0  0.03125 0.03125 0  0.0625 0.03125 0  0.09375 0.03125 0  0.125 0.03125 0  0.15625 0.03125 0  0.1875 0.03125 0  0.21875 0.03125 0  0.25 0.03125 0  0.28125 0.03125 0  0.3125 0.03125 0  0.34375 0.03125 0  0.375 0.03125 0  0.40625 0.03125 0  0.4375 0.03125 0  0.46875 0.03125 0  0.5 0.03125 0  0.53125 0.03125 0  0.5625 0.03125 0  0.59375 0.03125 0  0.625 0.03125 0  0.65625 0.03125 0  0.6875 0.03125 0  0.71875 0.03125 0  0.75 0.03125 0  0.78125 0.03125 0  0.8125 0.03125 0  0.84375 0.03125 0  0.875 0.03125 0  0.90625 0.03125 0  0.9375 0.03125 0  0.96875 0.03125 0  1 0.03125 0  1.03125 0.03125 0  1.0625 0.03125 0  1.09375 0.03125 0  1.125 0.03125 0  1.15625 0.03125 0  1.1875 0.03125 0  1.21875 0.03125 0  1.25 0.03125 0  1.28125 0.03125 0  1.3125 0.03125 0  1.34375 0.03125 0  1.375 0.03125 0  1.40625 0.03125 0  1.4375 0.03125 0  1.46875 0.03125 0  1.5 0.03125 0  0 0.0625 0  0.03125 0.0625 0  0.0625 0.0625 0  0.09375 0.0625 0  0.125 0.0625 0  0.15625 0.0625 0  0.1875 0.0625 0  0.21875 0.0625 0  0.25 0.0625 0  0.28125 0.0625 0  0.3125 0.0625 0  0.34375 0.0625 0  0.375 0.0625 0  0.40625 0.0625 0  0.4375 0.0625 0  0.46875 0.0625 0  0.5 0.0625 0  0.53125 0.0625 0  0.5625 0.0625 0  0.59375 0.0625 0  0.625 0.0625 0  0.65625 0.0625 0  0.6875 0.0625 0  0.71875 0.0625 0  0.75 0.0625 0  0.78125 0.0625 0  0.8125 0.0625 0  0.84375 0.0625 0  0.875 0.0625 0  0.90625 0.0625 0  0.9375 0.0625 0  0.96875 0.0625 0  1 0.0625 0  1.03125 0.0625 0  1.0625 0.0625 0  1.09375 0.0625 0  1.125 0.0625 0  1.15625 0.0625 0  1.1875 0.0625 0  1.21875 0.0625 0  1.25 0.0625 0  1.28125 0.0625 0  1.3125 0.0625 0  1.34375 0.0625 0  1.375 0.0625 0  1.40625 0.0625 0  1.4375 0.0625 0  1.46875 0.0625 0  1.5 0.0625 0  0 0.09375 0  0.03125 0.09375 0  0.0625 0.09375 0  0.09375 0.09375 0  0.125 0.09375 0  0.15625 0.09375 0  0.1875 0.09375 0  0.21875 0.09375 0  0.25 0.09375 0  0.28125 0.09375 0  0.3125 0.09375 0  0.34375 0.09375 0  0.375 0.09375 0  0.40625 0.09375 0  0.4375 0.09375 0  0.46875 0.09375 0  0.5 0.09375 0  0.53125 0.09375 0  0.5625 0.09375 0  0.59375 0.09375 0  0.625 0.09375 0  0.65625 0.09375 0  0.6875 0.09375 0  0.71875 0.09375 0  0.75 0.09375 0  0.78125 0.09375 0  0.8125 0.09375 0  0.84375 0.09375 0  0.875 0.09375 0  0.90625 0.09375 0  0.9375 0.09375 0  0.96875 0.09375 0  1 0.09375 0  1.03125 0.09375 0  1.0625 0.09375 0  1.09375 0.09375 0  1.125 0.09375 0  1.15625 0.09375 0  1.1875 0.09375 0  1.21875 0.09375 0  1.25 0.09375 0  1.28125 0.09375 0  1.3125 0.09375 0  1.34375 0.09375 0  1.375 0.09375 0  1.40625 0.09375 0  1.4375 0.09375 0  1.46875 0.09375 0  1.5 0.09375 0  0 0.125 0  0.03125 0.125 0  0.0625 0.125 0  0.09375 0.125 0  0.125 0.125 0  0.15625 0.125 0  0.1875 0.125 0  0.21875 0.125 0  0.25 0.125 0  0.28125 0.125 0  0.3125 0.125 0  0.34375 0.125 0  0.375 0.125 0  0.40625 0.125 0  0.4375 0.125 0  0.46875 0.125 0  0.5 0.125 0  0.53125 0.125 0  0.5625 0.125 0  0.59375 0.125 0  0.625 0.125 0  0.65625 0.125 0  0.6875 0.125 0  0.71875 0.125 0  0.75 0.125 0  0.78125 0.125 0  0.8125 0.125 0  0.84375 0.125 0  0.875 0.125 0  0.90625 0.125 0  0.9375 0.125 0  0.96875 0.125 0  1 0.125 0  1.03125 0.125 0  1.0625 0.125 0  1.09375 0.125 0  1.125 0.125 0  1.15625 0.125 0  1.1875 0.125 0  1.21875 0.125 0  1.25 0.125 0  1.28125 0.125 0  1.3125 0.125 0  1.34375 0.125 0  1.375 0.125 0  1.40625 0.125 0  1.4375 0.125 0  1.46875 0.125 0  1.5 0.125 0  0 0.15625 0  0.03125 0.15625 0  0.0625 0.15625 0  0.09375 0.15625 0  0.125 0.15625 0  0.15625 0.15625 0  0.1875 0.15625 0  0.21875 0.15625 0  0.25 0.15625 0  0.28125 0.15625 0  0.3125 0.15625 0  0.34375 0.15625 0  0.375 0.15625 0  0.40625 0.15625 0  0.4375 0.15625 0  0.46875 0.15625 0  0.5 0.15625 0  0.53125 0.15625 0  0.5625 0.15625 0  0.59375 0.15625 0  0.625 0.15625 0  0.65625 0.15625 0  0.6875 0.15625 0  0.71875 0.15625 0  0.75 0.15625 0  0.78125 0.15625 0  0.8125 0.15625 0  0.84375 0.15625 0  0.875 0.15625 0  0.90625 0.15625 0  0.9375 0.15625 0  0.96875 0.15625 0  1 0.15625 0  1.03125 0.15625 0  1.0625 0.15625 0  1.09375 0.15625 0  1.125 0.15625 0  1.15625 0.15625 0  1.1875 0.15625 0  1.21875 0.15625 0  1.25 0.15625 0  1.28125 0.15625 0  1.3125 0.15625 0  1.34375 0.15625 0  1.375 0.15625 0  1.40625 0.15625 0  1.4375 0.15625 0  1.46875 0.15625 0  1.5 0.15625 0  0 0.1875 0  0.03125 0.1875 0  0.0625 0.1875 0  0.09375 0.1875 0  0.125 0.1875 0  0.15625 0.1875 0  0.1875 0.1875 0  0.21875 0.1875 0  0.25 0.1875 0  0.28125 0.1875 0  0.3125 0.1875 0  0.34375 0.1875 0  0.375 0.1875 0  0.40625 0.1875 0  0.4375 0.1875 0  0.46875 0.1875 0  0.5 0.1875 0  0.53125 0.1875 0  0.5625 0.1875 0  0.59375 0.1875 0  0.625 0.1875 0  0.65625 0.1875 0  0.6875 0.1875 0  0.71875 0.1875 0  0.75 0.1875 0  0.78125 0.1875 0  0.8125 0.1875 0  0.84375 0.1875 0  0.875 0.1875 0  0.90625 0.1875 0  0.9375 0.1875 0  0.96875 0.1875 0  1 0.1875 0  1.03125 0.1875 0  1.0625 0.1875 0  1.09375 0.1875 0  1.125 0.1875 0  1.15625 0.1875 0  1.1875 0.1875 0  1.21875 0.1875 0  1.25 0.1875 0  1.28125 0.1875 0  1.3125 0.1875 0  1.34375 0.1875 0  1.375 0.1875 0  1.40625 0.1875 0  1.4375 0.1875 0  1.46875 0.1875 0  1.5 0.1875 0  0 0.21875 0  0.03125 0.21875 0  0.0625 0.21875 0  0.09375 0.21875 0  0.125 0.21875 0  0.15625 0.21875 0  0.1875 0.21875 0  0.21875 0.21875 0  0.25 0.21875 0  0.28125 0.21875 0  0.3125 0.21875 0  0.34375 0.21875 0  0.375 0.21875 0  0.40625 0.21875 0  0.4375 0.21875 0  0.46875 0.21875 0  0.5 0.21875 0  0.53125 0.21875 0  0.5625 0.21875 0  0.59375 0.21875 0  0.625 0.21875 0  0.65625 0.21875 0  0.6875 0.21875 0  0.71875 0.21875 0  0.75 0.21875 0  0.78125 0.21875 0  0.8125 0.21875 0  0.84375 0.21875 0  0.875 0.21875 0  0.90625 0.21875 0  0.9375 0.21875 0  0.96875 0.21875 0  1 0.21875 0  1.03125 0.21875 0  1.0625 0.21875 0  1.09375 0.21875 0  1.125 0.21875 0  1.15625 0.21875 0  1.1875 0.21875 0  1.21875 0.21875 0  1.25 0.21875 0  1.28125 0.21875 0  1.3125 0.21875 0  1.34375 0.21875 0  1.375 0.21875 0  1.40625 0.21875 0  1.4375 0.21875 0  1.46875 0.21875 0  1.5 0.21875 0  0 0.25 0  0.03125 0.25 0  0.0625 0.25 0  0.09375 0.25 0  0.125 0.25 0  0.15625 0.25 0  0.1875 0.25 0  0.21875 0.25 0  0.25 0.25 0  0.28125 0.25 0  0.3125 0.25 0  0.34375 0.25 0  0.375 0.25 0  0.40625 0.25 0  0.4375 0.25 0  0.46875 0.25 0  0.5 0.25 0  0.53125 0.25 0  0.5625 0.25 0  0.59375 0.25 0  0.625 0.25 0  0.65625 0.25 0  0.6875 0.25 0  0.71875 0.25 0  0.75 0.25 0  0.78125 0.25 0  0.8125 0.25 0  0.84375 0.25 0  0.875 0.25 0  0.90625 0.25 0  0.9375 0.25 0  0.96875 0.25 0  1 0.25 0  1.03125 0.25 0  1.0625 0.25 0  1.09375 0.25 0  1.125 0.25 0  1.15625 0.25 0  1.1875 0.25 0  1.21875 0.25 0  1.25 0.25 0  1.28125 0.25 0  1.3125 0.25 0  1.34375 0.25 0  1.375 0.25 0  1.40625 0.25 0  1.4375 0.25 0  1.46875 0.25 0  1.5 0.25 0  0 0.28125 0  0.03125 0.28125 0  0.0625 0.28125 0  0.09375 0.28125 0  0.125 0.28125 0  0.15625 0.28125 0  0.1875 0.28125 0  0.21875 0.28125 0  0.25 0.28125 0  0.28125 0.28125 0  0.3125 0.28125 0  0.34375 0.28125 0  0.375 0.28125 0  0.40625 0.28125 0  0.4375 0.28125 0  0.46875 0.28125 0  0.5 0.28125 0  0.53125 0.28125 0  0.5625 0.28125 0  0.59375 0.28125 0  0.625 0.28125 0  0.65625 0.28125 0  0.6875 0.28125 0  0.71875 0.28125 0  0.75 0.28125 0  0.78125 0.28125 0  0.8125 0.28125 0  0.84375 0.28125 0  0.875 0.28125 0  0.90625 0.28125 0  0.9375 0.28125 0  0.96875 0.28125 0  1 0.28125 0  1.03125 0.28125 0  1.0625 0.28125 0  1.09375 0.28125 0  1.125 0.28125 0  1.15625 0.28125 0  1.1875 0.28125 0  1.21875 0.28125 0  1.25 0.28125 0  1.28125 0.28125 0  1.3125 0.28125 0  1.34375 0.28125 0  1.375 0.28125 0  1.40625 0.28125 0  1.4375 0.28125 0  1.46875 0.28125 0  1.5 0.28125 0  0 0.3125 0  0.03125 0.3125 0  0.0625 0.3125 0  0.09375 0.3125 0  0.125 0.3125 0  0.15625 0.3125 0  0.1875 0.3125 0  0.21875 0.3125 0  0.25 0.3125 0  0.28125 0.3125 0  0.3125 0.3125 0  0.34375 0.3125 0  0.375 0.3125 0  0.40625 0.3125 0  0.4375 0.3125 0  0.46875 0.3125 0  0.5 0.3125 0  0.53125 0.3125 0  0.5625 0.3125 0  0.59375 0.3125 0  0.625 0.3125 0  0.65625 0.3125 0  0.6875 0.3125 0  0.71875 0.3125 0  0.75 0.3125 0  0.78125 0.3125 0  0.8125 0.3125 0  0.84375 0.3125 0  0.875 0.3125 0  0.90625 0.3125 0  0.9375 0.3125 0  0.96875 0.3125 0  1 0.3125 0  1.03125 0.3125 0  1.0625 0.3125 0  1.09375 0.3125 0  1.125 0.3125 0  1.15625 0.3125 0  1.1875 0.3125 0  1.21875 0.3125 0  1.25 0.3125 0  1.28125 0.3125 0  1.3125 0.3125 0  1.34375 0.3125 0  1.375 0.3125 0  1.40625 0.3125 0  1.4375 0.3125 0  1.46875 0.3125 0  1.5 0.3125 0  0 0.34375 0  0.03125 0.34375 0  0.0625 0.34375 0  0.09375 0.34375 0  0.125 0.34375 0  0.15625 0.34375 0  0.1875 0.34375 0  0.21875 0.34375 0  0.25 0.34375 0  0.28125 0.34375 0  0.3125 0.34375 0  0.34375 0.34375 0  0.375 0.34375 0  0.40625 0.34375 0  0.4375 0.34375 0  0.46875 0.34375 0  0.5 0.34375 0  0.53125 0.34375 0  0.5625 0.34375 0  0.59375 0.34375 0  0.625 0.34375 0  0.65625 0.34375 0  0.6875 0.34375 0  0.71875 0.34375 0  0.75 0.34375 0  0.78125 0.34375 0  0.8125 0.34375 0  0.84375 0.34375 0  0.875 0.34375 0  0.90625 0.34375 0  0.9375 0.34375 0  0.96875 0.34375 0  1 0.34375 0  1.03125 0.34375 0  1.0625 0.34375 0  1.09375 0.34375 0  1.125 0.34375 0  1.15625 0.34375 0  1.1875 0.34375 0  1.21875 0.34375 0  1.25 0.34375 0  1.28125 0.34375 0  1.3125 0.34375 0  1.34375 0.34375 0  1.375 0.34375 0  1
[...]
<PointData  Scalars="f_33"> 
<DataArray  type="Float64"  Name="f_33"  format="ascii">2.0406945189626668e-05  1.8962782674437846e-05  1.6535700746333237e-05  1.4046922623424792e-05  1.1667037523177877e-05  9.4235418985027952e-06  7.3254251015398324e-06  5.3747553743777732e-06  3.5695645303502396e-06  1.9057649385517426e-06  3.7818752830351192e-07  -1.0188057118736014e-06  -2.2909599133232620e-06  -3.4439184332414328e-06  -4.4831041030495011e-06  -5.4136492420330494e-06  -6.2403496501021019e-06  -6.9676291681775702e-06  -7.5995079999048859e-06  -8.1395712018134515e-06  -8.5909352140729137e-06  -8.9562112758665751e-06  -9.2374657455264706e-06  -9.4361788947301867e-06  -9.5532053992927635e-06  -9.5887409696682421e-06  -9.5422998144233552e-06  -9.4127066704186735e-06  -9.1981051673142364e-06  -8.8959819128123407e-06  -8.5032035589200368e-06  -8.0160628114427171e-06  -7.4303289537415165e-06  -6.7412990492877849e-06  -5.9438467609562426e-06  -5.0324676603767142e-06  -4.0013204973769689e-06  -2.8442708584616744e-06  -1.5549418236728795e-06  -1.2680431656765288e-07  1.4466801397318251e-06  3.1718609724111794e-06  5.0543149045183764e-06  7.1000530582033436e-06  9.3096728541137938e-06  1.1696080119158128e-05  1.4288223355397956e-05  1.6941231818101471e-05  1.7962922839095436e-05  2.0777969795242075e-05  1.9253590363205025e-05  1.6564392277039779e-05  1.3976782556236163e-05  1.1569655322189670e-05  9.3202394765390973e-06  7.2220082575172147e-06  5.2736816026310903e-06  3.4720131398108349e-06  1.8123634062747951e-06  2.8924834786839328e-07  -1.1031831280830226e-06  -2.3708274781783527e-06  -3.5194336728483102e-06  -4.5544965898091718e-06  -5.4811974696606689e-06  -6.3043661983015367e-06  -7.0284518952049847e-06  -7.6574954205951930e-06  -8.1951007006747347e-06  -8.6444030432313280e-06  -9.0080333669961939e-06  -9.2880783411682048e-06  -9.4860380443450082e-06  -9.6027845985081851e-06  -9.6385266680653265e-06  -9.5927850659237998e-06  -9.4643836589705543e-06  -9.2514575413799751e-06  -8.9514777415785610e-06  -8.5612893416220490e-06  -8.0771584477610092e-06  -7.4948230465708246e-06  -6.8095433677653045e-06  -6.0161482012689987e-06  -5.1090753184525294e-06  -4.0824051662172991e-06  -2.9298930255213209e-06  -1.6450059218984751e-06  -2.2099295328588785e-07  1.3489985147943170e-06  3.0717713994081128e-06  4.9537086844119979e-06  7.0021407796242642e-06  9.2216461834269828e-06  1.1636830165561594e-05  1.4297917389029838e-05  1.7149212656107585e-05  1.8532810347234723e-05  2.1496531761659095e-05  1.9812300353838578e-05  1.6768307690001939e-05  1.3981881925362792e-05  1.1478008060397723e-05  9.1825213547045704e-06  7.0601231497551862e-06  5.0997215610188205e-06  3.2929482298868352e-06  1.6325571013035613e-06  1.1153079130537200e-07  -1.2769940307924334e-06  -2.5396227032208961e-06  -3.6826100245306692e-06  -4.7118129380703017e-06  -5.6326727445020099e-06  -6.4502085242714153e-06  -7.1690108889443519e-06  -7.7932314672487474e-06  -8.3265664241001517e-06  -8.7722330342972423e-06  -9.1329385278970866e-06  -9.4108412349598468e-06  -9.6075058705955076e-06  -9.7238572435555954e-06  -9.7601387704780745e-06  -9.7158828262470369e-06  -9.5898985724785531e-06  -9.3802797906313271e-06  -9.0844314703490443e-06  -8.6991106697405574e-06  -8.2204753374085292e-06  -7.6441343886237441e-06  -6.9651931026619973e-06  -6.1782887838328073e-06  -5.2776132570701498e-06  -4.2569193550888409e-06  -3.1095145198952870e-06  -1.8282431202020490e-06  -4.0547905927789132e-07  1.1668941093723065e-06  2.8975914289142182e-06  4.7961592025450944e-06  6.8758195571731954e-06  9.1523132753259108e-06  1.1675979220009382e-05  1.4527221149351741e-05  1.7652929505296926e-05  1.9247296104969581e-05  2.2338787626847479e-05  2.0519007740349643e-05  1.7163673223552807e-05  1.4129045102166154e-05  1.1463944937138299e-05  9.0716045724289220e-06  6.8897428256301249e-06  4.8936385766807428e-06  3.0660810192441509e-06  1.3947492836282639e-06  -1.3056730418361943e-07  -1.5188756944085279e-06  -2.7782810666488711e-06  -3.9161143669223675e-06  -4.9390145902391803e-06  -5.8529962520435410e-06  -6.6635029748234073e-06  -7.3754453255430444e-06  -7.9932231243485342e-06  -8.5207333676947576e-06  -8.9613642104938573e-06  -9.3179745552661400e-06  -9.5928591188642762e-06  -9.7877010538543892e-06  -9.9035178509741415e-06  -9.9406097389819574e-06  -9.8985210877660245e-06  -9.7760232289752120e-06  -9.5711221430786785e-06  -9.2810885314503589e-06  -8.9025030012938070e-06  -8.4313067445313979e-06  -7.8628480195591986e-06  -7.1919161462802591e-06  -6.4127559621351364e-06  -5.5190571947788050e-06  -4.5039129743404988e-06  -3.3597460790247640e-06  -2.0781955128184622e-06  -6.4996661059769432e-07  9.3542179031716770e-07  2.6901554018566959e-06  4.6290855329021052e-06  6.7738759610297664e-06  9.1530553095581101e-06  1.1834968266242793e-05  1.4907802722134938e-05  1.8284211160801884e-05  2.0030244235450061e-05  2.3190245743956190e-05  2.1279124866777390e-05  1.7685052784024016e-05  1.4411332642532924e-05  1.1557600533775583e-05  9.0320630720395033e-06  6.7585817158084004e-06  4.7012810353823533e-06  2.8336705805077265e-06  1.1372426613058017e-06  -4.0255166864922130e-07  -1.7978078996551958e-06  -3.0588697291343714e-06  -4.1947180988922764e-06  -5.2132199231065100e-06  -6.1213097483063578e-06  -6.9251254099960025e-06  -7.6301071578340924e-06  -8.2410668859920617e-06  -8.7622323069804100e-06  -9.1972680713786177e-06  -9.5492732357975093e-06  -9.8207539760918599e-06  -1.0013573302798705e-05  -1.0128885434149395e-05  -1.0167068718298173e-05  -1.0127673645066422e-05  -1.0009399107568893e-05  -9.8101016157993466e-06  -9.5268323529380556e-06  -9.1558897446958629e-06  -8.6928725871889053e-06  -8.1327199541830737e-06  -7.4697270810568089e-06  -6.6975285864696662e-06  -5.8090418937269940e-06  -4.7963624747102629e-06  -3.6506050191913193e-06  -2.3616746506208543e-06  -9.1795684113876726e-07  6.9416634947879413e-07  2.4911636877917103e-06  4.4937306689046318e-06  6.7312854829021772e-06  9.2411538657421656e-06  1.2098446834096174e-05  1.5383056786363394e-05  1.8967977133999127e-05  2.0823093006130430e-05  2.4009412376430072e-05  2.2035084849861083e-05  1.8262431782624790e-05  1.4782463450255515e-05  1.1743161447236122e-05  9.0696006726020637e-06  6.6844216610337844e-06  4.5461314579647735e-06  2.6213211487771064e-06  8.8583258009901315e-07  -6.7941829182144638e-07  -2.0900317635519517e-06  -3.3590430456489294e-06  -4.4975035491665629e-06  -5.5148727540107060e-06  -6.4193110119888346e-06  -7.2179012379065913e-06  -7.9168160367114233e-06  -8.5214418323264325e-06  -9.0364679452075695e-06  -9.4659434849696791e-06  -9.8133000003930857e-06  -1.0081335849006024e-05  -1.0272161949934238e-05  -1.0387118542983456e-05  -1.0426684246634848e-05  -1.0390404328296047e-05  -1.0276859433267637e-05  -1.0083680952459388e-05  -9.8076024535655599e-06  -9.4445258868331171e-06  -8.9895795189906600e-06  -8.4371490676010049e-06  -7.7808697493133079e-06  -7.0135708292007722e-06  -6.1271659260541710e-06  -5.1124802661396045e-06  -3.9590076519353434e-06  -2.6545790150297268e-06  -1.1849307526001455e-06  4.6691375539601560e-07  2.3216021153284621e-06  4.4047887526454514e-06  6.7511532513769125e-06  9.4016614773970425e-06  1.2429954912509753e-05  1.5900622130732666e-05  1.9650835859878941e-05  2.1582841402146545e-05  2.4776629060340376e-05  2.2756766917361326e-05  1.8849340269433349e-05  1.5199559202731101e-05  1.1992266493506444e-05  9.1721600268820329e-06  6.6677570756763780e-06  4.4370233583477471e-06  2.4429128816232697e-06  6.5715815684946147e-07  -9.4323877214427318e-07  -2.3772372244068149e-06  -3.6606527377650782e-06  -4.8067942445056805e-06  -5.8269298953037102e-06  -6.7306574642003272e-06  -7.5261959741679921e-06  -8.2206144669226707e-06  -8.8200105510951354e-06  -9.3296481119501619e-06  -9.7540565906944194e-06  -1.0097086264116911e-05  -1.0361908898042130e-05  -1.0550957210973617e-05  -1.0665813635929278e-05  -1.0707081326088807e-05  -1.0674282660411439e-05  -1.0565820724051752e-05  -1.0379011151324843e-05  -1.0110162186838546e-05  -9.7546656274244388e-06  -9.3070638236691678e-06  -8.7610700652502830e-06  -8.1095316895230091e-06  -7.3443313522416970e-06  -6.4562234158076705e-06  -5.4345995920565613e-06  -4.2671799422518956e-06  -2.9396169625798797e-06  -1.4350149558185228e-06  2.6669149827086610e-07  2.1895819316652922e-06  4.3627060064045037e-06  6.8232222201714436e-06  9.6116479222314141e-06  1.2795650309949852e-05  1.6423220904751030e-05  2.0302927762143863e-05  2.2290323468188844e-05  2.5481937924210526e-05  2.3428064381972101e-05  1.9417236642255979e-05  1.5629748801251570e-05  1.2276842867282726e-05  9.3210557048895835e-06  6.6994253331344403e-06  4.3726993643293589e-06  2.3030210733641326e-06  4.5979493166190687e-07  -1.1828443469704735e-06  -2.6466810538944412e-06  -3.9500917448308447e-06  -5.1086005187160250e-06  -6.1353359405918709e-06  -7.0414289681831549e-06  -7.8363443761602627e-06  -8.5281538673072235e-06  -9.1237603140583932e-06  -9.6290825027690332e-06  -1.0049201268243357e-05  -1.0388456224129526e-05  -1.0650469902664148e-05  -1.0838077877497606e-05  -1.0953172190018695e-05  -1.0996509253016438e-05  -1.0967561582269853e-05  -1.0864475273947601e-05  -1.0684139750715330e-05  -1.0422322300015152e-05  -1.0073800852136693e-05  -9.6324443404437426e-06  -9.0912178460782955e-06  -8.4421101883539871e-06  -7.6759888246377124e-06  -6.7823864810001813e-06  -5.7492196564204893e-06  -4.5624422724285713e-06  -3.2056339606137239e-06  -1.6595475318845240e-06  9.8401150938402309e-08  2.0947118633438195e-06  4.3602207104256528e-06  6.9323127815238520e-06  9.8485376166853715e-06  1.3168868736327106e-05  1.6926209862322328e-05  2.0907540706820760e-05  2.2936064053754941e-05  2.6119818782188865e-05  2.4039861232876479e-05  1.9948514812270951e-05  1.6049860947650742e-05  1.2573797552075988e-05  9.4974860368150133e-06  6.7666768878665186e-06  4.3465322707314123e-06  2.2002810483288192e-06  2.9653062722772763e-07  -1.3923509844984284e-06  -2.8902721701455229e-06  -4.2177606171267901e-06  -5.3923412750276174e-06  -6.4289142113820292e-06  -7.3401295185889479e-06  -8.1367238314895987e-06  -8.8278142918290325e-06  -9.4211534025477464e-06  -9.9233540344826517e-06  -1.0340084581764214e-05  -1.0676219896161622e-05  -1.0935903157110813e-05  -1.1122465886421031e-05  -1.1238198202436702e-05  -1.1284047442691562e-05  -1.1259392418949972e-05  -1.1162007764481797e-05  -1.0988215657483508e-05  -1.0733119845292168e-05  -1.0390802328286980e-05  -9.9544154695419792e-06  -9.4161592591961147e-06  -8.7671620836516990e-06  -7.9972860311149478e-06  -7.0948710195739398e-06  -6.0464247912509531e-06  -4.8362704089503235e-06  -3.4461643652492390e-06  -1.8549332067425986e-06  -3.8147502356819245e-08  2.0321251291672483e-06  4.3871957859434663e-06  7.0631830095781560e-06  1.0093474861345671e-05  1.3530284726783132e-05  1.7393897056116005e-05  2.1455427532103196e-05  2.3515310993757084e-05  2.6687016431966126e-05  2.4586735562444231e-05  2.0432067400011516e-05  1.6443897961471658e-05  1.2865359770059536e-05  9.6850231153102467e-06  6.8564487897766191e-06  4.3496571401354863e-06  2.1299928853333785e-06  1.6635654853656672e-07  -1.5697210289850432e-06  -3.1035782824458536e-06  -4.4574126543931743e-06  -5.6504383597858112e-06  -6.6991403383860619e-06  -7.6175870472410053e-06  -8.4177413376413236e-06  -9.1097509020570735e-06  -9.7022148886401136e-06  -1.0202436712861752e-05  -1.0616666229978966e-05  -1.0950324789334496e-05  -1.1208133601715110e-05  -1.1394035151868056e-05  -1.1510848170381392e-05  -1.1559766335862602e-05  -1.1539996528249806e-05  -1.1448762023676548e-05  -1.1281628201090416e-05  -1.1032910792724000e-05  -1.0695955105233246e-05  -1.0263218734776754e-05  -9.7261917144661624e-06  -9.0752120676817817e-06  -8.2992183847453474e-06  -7.3854614028307540e-06  -6.3191855911341687e-06  -5.0832987811511452e-06  -3.6580548414369684e-06  -2.0208166880961299e-06  -1.4594405734178605e-07  1.9951219374828948e-06  4.4332614473745664e-06  7.2025205936789457e-06  1.0331837387162420e-05  1.3866418199510389e-05  1.7816460574438787e-05  2.1941552964572073e-05  2.4025800698479024e-05  2.7181513760945922e-05  2.5065314149018073e-05  2.0860709271795739e-05  1.6800824691232461e-05  1.3138260931115782e-05  9.8702621918067963e-06  6.9569252830137767e-06  4.3728829520141421e-06  2.0859886206440434e-06  6.6084363378528666e-08  -1.7154615728964536e-06  -3.2848311185080469e-06  -4.6654272619206273e-06  -5.8778104247893072e-06  -6.9398104793706934e-06  -7.8667552531765750e-06  -8.6717344989159686e-06  -9.3658666268819843e-06  -9.9585573928006861e-06  -1.0457760803677853e-05  -1.0870256300982847e-05  -1.1201976044241835e-05  -1.1458250331596660e-05  -1.1643785634878950e-05  -1.1762146875678156e-05  -1.1814863203280457e-05  -1.1800816049835340e-05  -1.1716373813706649e-05  -1.1556085326943135e-05  -1.1313374269219108e-05  -1.0980886991313145e-05  -1.0550499489218438e-05  -1.0013126913235193e-05  -9.3584516137314807e-06  -8.5746247516430697e-06  -7.6479601643398612e-06  -6.5626282518815052e-06  -5.3003704192070543e-06  -3.8402676752406743e-06  -2.1586444635012792e-06  -2.2916719594879376e-07  1.9767784560642479e-06  4.4891181310158545e-06  7.3395361838614506e-06  1.0552770724059038e-05  1.4168092665157505e-05  1.8187857849329994e-05  2.2363318322498432e-05  2.4466676629778414e-05  2.7602009748927991e-05  2.5473417000415191e-05  2.1229675650354830e-05  1.7112974727463377e-05  1.3382726941567119e-05  1.0042659485966350e-05  7.0580995955802952e-06  4.4077062202603147e-06  2.0618186847907937e-06  -8.4888904065594452e-09  -1.8315882051618928e-06  -3.4340651207979639e-06  -4.8401317186340428e-06  -6.0713655890116209e-06  -7.1466836555058813e-06  -8.0824808219435412e-06  -8.8928376718460679e-06  -9.5897520897937031e-06  -1.0183373669017707e-05  -1.0682246012194894e-05  -1.1093586355763196e-05  -1.1423742857333593e-05  -1.1678616034479664e-05  -1.1863891287858274e-05  -1.1984279815235406e-05  -1.2041790252601906e-05  -1.2034655861090205e-05  -1.1957861785702054e-05  -1.1804605040819814e-05  -1.1567401150333781e-05  -1.1238377728179460e-05  -1.0809059155885222e-05  -1.0269993640299355e-05  -9.6103838736943482e-06  -8.8177549841650908e-06  -7.8776538544209115e-06  -6.7733760553381647e-06  -5.4857407585745921e-06  -3.9929535969829381e-06  -2.2706477635882183e-06  -2.9216987916005369e-07  1.9708049372870364e-06  4.5470309247320700e-06  7.4658882230098477e-06  1.0748447758961303e-05  1.4429172994718938e-05  1.8504453072966319e-05  2.2719535758028508e-05  2.4837873942644777e-05  2.7947637526250079e-05  2.5809592503418446e-05  2.1535744683347220e-05  1.7374987800245239e-05  1.3591619675399631e-05  1.0194123593178758e-05  7.1518565984349942e-06  4.4467812071598991e-06  2.0514521365344721e-06  -6.1791371840374974e-08  -1.9208492904589370e-06  -3.5524189269223781e-06  -4.9812121490550476e-06  -6.2295338175525048e-06  -7.3171351800477565e-06  -8.2612696532440233e-06  -9.0768463493611922e-06  -9.7766268338011152e-06  -1.0371429242733742e-05  -1.0870327050300773e-05  -1.1280872232967621e-05  -1.1609680927927701e-05  -1.1862994195244320e-05  -1.2047797691594084e-05  -1.2170708942993153e-05  -1.2234413826500387e-05  -1.2235818734218392e-05  -1.2167630076644693e-05  -1.2021351685653522e-05  -1.1788816001030367e-05  -1.1462034927334972e-05  -1.1032524027215361e-05  -1.0490704429922665e-05  -9.8254723261745709e-06  -9.0238771820001911e-06  -8.0708574191912421e-06  -6.9490178194893930e-06  -5.6384715308249975e-06  -4.1167935586954969e-06  -2.3591827775049573e-06  -3.3890130764851937e-07  1.9719296686792583e-06  4.6008988862750721e-06  7.5753536867041015e-06  1.0913355751145583e-05  1.4645628772863729e-05  1.8764129386585771e-05  2.3009820884127738e-05  2.5139751376362192e-05  2.8217808299511905e-05  2.6072858806190493e-05  2.1776719602852850e-05  1.7583120579465758e-05  1.3759789874959300e-05  1.0318593888720239e-05  7.2318578154710868e-06  4.4840934145328193e-06  2.0496646334609269e-06  -9.7962554901200769e-08  -1.9861654999637126e-06  -3.6415876230284947e-06  -5.0892181060278027e-06  -6.3518484801319800e-06  -7.4498298982990103e-06  -8.4010601120489188e-06  -9.2210925462185781e-06  -9.9233078400109318e-06  -1.0519097511403578e-05  -1.1018014844770404e-05  -1.1427894289800420e-05  -1.1755492734304068e-05  -1.2006737461994899e-05  -1.2190450179929603e-05  -1.2316441083004136e-05  -1.2388225677532064e-05  -1.2400137077231105e-05  -1.2341217121429982e-05  -1.2201173582311652e-05  -1.1971870917350611e-05  -1.1645853266208311e-05  -1.1214991575973125e-05  -1.0669761373635109e-05  -9.9988655184591001e-06  -9.1889864071714411e-06  -8.2245844180289660e-06  -7.0877320396790424e-06  -5.7580178192045349e-06  -4.2125761678732636e-06  -2.4263455558471805e-06  -3.7262386889832440e-07  1.9760070925241149e-06  4.6461266722992208e-06  7.6634426981518280e-06  1.1043704418014327e-05  1.4814865801442482e-05  1.8965710904384136e-05  2.3234215253551831e-05  2.5372850802213343e-05  2.8412125421167940e-05  2.6262559024972204e-05  2.1951122281301496e-05  1.7734808377808472e-05  1.3883621708263488e-05  1.0411690847550728e-05  7.2933742780805499e-06  4.5149925607969107e-06  2.0522449607509502e-06  -1.2052195996983248e-07  -2.0302263910727417e-06  -3.7033927210775020e-06  -5.1651413189985723e-06  -6.4385603675944422e-06  -7.5443930028929116e-06  -8.5009720764379816e-06  -9.3242958613373613e-06  -1.0028183415401615e-05  -1.0624452230858178e-05  -1.1123050429047153e-05  -1.1532146860427948e-05  -1.1858697300085093e-05  -1.2107156236054663e-05  -1.2289067238254393e-05  -1.2418719366697858e-05  -1.2500375795933509e-05  -1.2524492126058037e-05  -1.2474438321922308e-05  -1.2338675983548738e-05  -1.2110548203934653e-05  -1.1783794719399842e-05  -1.1350804802828713e-05  -1.0802124826755040e-05  -1.0126286814701893e-05  -9.3096727064109498e-06  -8.3363748092261391e-06  -7.1880744035049056e-06  -5.8439904885760744e-06  -4.2809637165958922e-06  -2.4737817358855762e-06  -3.9581341005872842e-07  1.9799826185379637e-06  4.6794270416673059e-06  7.7270453723241897e-06  1.1136969581443650e-05  1.4935259109657125e-05  1.9108583086065373e-05  2.3392942925474431e-05  2.5537733397425878e-05  2.8530338648002052e-05  2.6378281266751379e-05  2.2058013798578201e-05  1.7828392990486097e-05  1.3960728707241775e-05  1.0470457726579519e-05  7.3331336279802351e-06  4.5361722590457425e-06  2.0561043757403208e-06  -1.3215242046476271e-07  -2.0551960667323889e-06  -3.7394389696546823e-06  -5.2100471152740058e-06  -6.4902613754662066e-06  -7.6010408851507123e-06  -8.5609635525629633e-06  -9.3862782719416168e-06  -1.0091045978686113e-05  -1.0687311580976821e-05  -1.1185249570107619e-05  -1.1593365345654084e-05  -1.1918906634354567e-05  -1.2164286868386582e-05  -1.2344807990306204e-05  -1.2478000965158669e-05  -1.2568603045303015e-05  -1.2604944559863730e-05  -1.2561575459140938e-05  -1.2427001041336240e-05  -1.2198080894479233e-05  -1.1869770697755194e-05  -1.1434714713461512e-05  -1.0883396527153661e-05  -1.0204167518824571e-05  -9.3831820282063337e-06  -8.4042857778983628e-06  -7.2489136767127785e-06  -5.8960606846695146e-06  -4.3223951244051265e-06  -2.5026217546394391e-06  -4.1016039960308654e-07  1.9817988632264708e-06  4.6986239805779903e-06  7.7641460695269088e-06  1.1191560477449381e-05  1.5005834087870370e-05  1.9192443131153511e-05  2.3486249668431022e-05  2.5634865560863545e-05  2.8572321617191158e-05  2.6419816773812818e-05  2.2096893674183175e-05  1.7862961633153023e-05  1.3989763775073690e-05  1.0493187955207817e-05  7.3492059527601903e-06  4.5456389480819432e-06  2.0593352043874961e-06  -1.3455863656168558e-07  -2.0625021049871036e-06  -3.7508469582632761e-06  -5.2247594529552620e-06  -6.5075235181914243e-06  -7.6201676948846084e-06  -8.5813521189299031e-06  -9.4074105153548145e-06  -1.0112483134328272e-05  -1.0708684613265724e-05  -1.1206267577970151e-05  -1.1613861407739210e-05  -1.1938656263370264e-05  -1.2182422237351858e-05  -1.2361673795403413e-05  -1.249738283343010