<?xml version="1.0"?>
<VTKFile type="UnstructuredGrid"  version="0.1"  >
<UnstructuredGrid>
<Piece  NumberOfPoints="1617" NumberOfCells="3072">
<Points>
<DataArray  type="Float64"  NumberOfComponents="3"  format="ascii">0 0 0  0.03125 0 0  0.0625 0 0  0.09375 0 0  0.125 0 0  0.15625 0 0  0.1875 0 0  0.21875 0 0  0.25 0 0  0.28125 0 0  0.3125 0 0  0.34375 0 0  0.375 0 0  0.40625 0 0  0.4375 0 0  0.46875 0 0  0.5 0 0  0.53125 0 0  0.5625 0 0  0.59375 0 0  0.625 0 0  0.65625 0 0  0.6875 0 0  0.71875 0 0  0.75 0 0  0.78125 0 0  0.8125 0 0  0.84375 0 0  0.875 0 0  0.90625 0 0  0.9375 0 0  0.96875 0 0  1 0 0  1.03125 0 0  1.0625 0 0  1.09375 0 0  1.125 0 0  1.15625 0 0  1.1875 0 0  1.21875 0 0  1.25 0 0  1.28125 0 0  1.3125 0 0  1.34375 0 0  1.375 0 0  1.40625 0 0  1.4375 0 0  1.46875 0 0  1.5 0 0  0 0.03125 0  0.03125 0.03125 0  0.0625 0.03125 0  0.09375 0.03125 0  0.125 0.03125 0  0.15625 0.03125 0  0.1875 0.03125 0  0.21875 0.03125 0  0.25 0.03125 0  0.28125 0.03125 0  0.3125 0.03125 0  0.34375 0.03125 0  0.375 0.03125 0  0.40625 0.03125 0  0.4375 0.03125 0  0.46875 0.03125 0  0.5 0.03125 0  0.53125 0.03125 0  0.5625 0.03125 0  0.59375 0.03125 0  0.625 0.03125 0  0.65625 0.03125 0  0.6875 0.03125 0  0.71875 0.03125 0  0.75 0.03125 0  0.78125 0.03125 0  0.8125 0.03125 0  0.84375 0.03125 0  0.875 0.03125 0  0.90625 0.03125 0  0.9375 0.03125 0  0.96875 0.03125 0  1 0.03125 0  1.03125 0.03125 0  1.0625 0.03125 0  1.09375 0.03125 0  1.125 0.03125 0  1.15625 0.03125 0  1.1875 0.03125 0  1.21875 0.03125 0  1.25 0.03125 0  1.28125 0.03125 0  1.3125 0.03125 0  1.34375 0.03125 0  1.375 0.03125 0  1.40625 0.03125 0  1.4375 0.03125 0  1.46875 0.03125 0  1.5 0.03125 0  0 0.0625 0  0.03125 0.0625 0  0.0625 0.0625 0  0.09375 0.0625 0  0.125 0.0625 0  0.15625 0.0625 0  0.1875 0.0625 0  0.21875 0.0625 0  0.25 0.0625 0  0.28125 0.0625 0  0.3125 0.0625 0  0.34375 0.0625 0  0.375 0.0625 0  0.40625 0.0625 0  0.4375 0.0625 0  0.46875 0.0625 0  0.5 0.0625 0  0.53125 0.0625 0  0.5625 0.0625 0  0.59375 0.0625 0  0.625 0.0625 0  0.65625 0.0625 0  0.6875 0.0625 0  0.71875 0.0625 0  0.75 0.0625 0  0.78125 0.0625 0  0.8125 0.0625 0  0.84375 0.0625 0  0.875 0.0625 0  0.90625 0.0625 0  0.9375 0.0625 0  0.96875 0.0625 0  1 0.0625 0  1.03125 0.0625 0  1.0625 0.0625 0  1.09375 0.0625 0  1.125 0.0625 0  1.15625 0.0625 0  1.1875 0.0625 0  1.21875 0.0625 0  1.25 0.0625 0  1.28125 0.0625 0  1.3125 0.0625 0  1.34375 0.0625 0  1.375 0.0625 0  1.40625 0.0625 0  1.4375 0.0625 0  1.46875 0.0625 0  1.5 0.0625 0  0 0.09375 0  0.03125 0.09375 0  0.0625 0.09375 0  0.09375 0.09375 0  0.125 0.09375 0  0.15625 0.09375 0  0.1875 0.09375 0  0.21875 0.09375 0  0.25 0.09375 0  0.28125 0.09375 0  0.3125 0.09375 0  0.34375 0.09375 0  0.375 0.09375 0  0.40625 0.09375 0  0.4375 0.09375 0  0.46875 0.09375 0  0.5 0.09375 0  0.53125 0.09375 0  0.5625 0.09375 0  0.59375 0.09375 0  0.625 0.09375 0  0.65625 0.09375 0  0.6875 0.09375 0  0.71875 0.09375 0  0.75 0.09375 0  0.78125 0.09375 0  0.8125 0.09375 0  0.84375 0.09375 0  0.875 0.09375 0  0.90625 0.09375 0  0.9375 0.09375 0  0.96875 0.09375 0  1 0.09375 0  1.03125 0.09375 0  1.0625 0.09375 0  1.09375 0.09375 0  1.125 0.09375 0  1.15625 0.09375 0  1.1875 0.09375 0  1.21875 0.09375 0  1.25 0.09375 0  1.28125 0.09375 0  1.3125 0.09375 0  1.34375 0.09375 0  1.375 0.09375 0  1.40625 0.09375 0  1.4375 0.09375 0  1.46875 0.09375 0  1.5 0.09375 0  0 0.125 0  0.03125 0.125 0  0.0625 0.125 0  0.09375 0.125 0  0.125 0.125 0  0.15625 0.125 0  0.1875 0.125 0  0.21875 0.125 0  0.25 0.125 0  0.28125 0.125 0  0.3125 0.125 0  0.34375 0.125 0  0.375 0.125 0  0.40625 0.125 0  0.4375 0.125 0  0.46875 0.125 0  0.5 0.125 0  0.53125 0.125 0  0.5625 0.125 0  0.59375 0.125 0  0.625 0.125 0  0.65625 0.125 0  0.6875 0.125 0  0.71875 0.125 0  0.75 0.125 0  0.78125 0.125 0  0.8125 0.125 0  0.84375 0.125 0  0.875 0.125 0  0.90625 0.125 0  0.9375 0.125 0  0.96875 0.125 0  1 0.125 0  1.03125 0.125 0  1.0625 0.125 0  1.09375 0.125 0  1.125 0.125 0  1.15625 0.125 0  1.1875 0.125 0  1.21875 0.125 0  1.25 0.125 0  1.28125 0.125 0  1.3125 0.125 0  1.34375 0.125 0  1.375 0.125 0  1.40625 0.125 0  1.4375 0.125 0  1.46875 0.125 0  1.5 0.125 0  0 0.15625 0  0.03125 0.15625 0  0.0625 0.15625 0  0.09375 0.15625 0  0.125 0.15625 0  0.15625 0.15625 0  0.1875 0.15625 0  0.21875 0.15625 0  0.25 0.15625 0  0.28125 0.15625 0  0.3125 0.15625 0  0.34375 0.15625 0  0.375 0.15625 0  0.40625 0.15625 0  0.4375 0.15625 0  0.46875 0.15625 0  0.5 0.15625 0  0.53125 0.15625 0  0.5625 0.15625 0  0.59375 0.15625 0  0.625 0.15625 0  0.65625 0.15625 0  0.6875 0.15625 0  0.71875 0.15625 0  0.75 0.15625 0  0.78125 0.15625 0  0.8125 0.15625 0  0.84375 0.15625 0  0.875 0.15625 0  0.90625 0.15625 0  0.9375 0.15625 0  0.96875 0.15625 0  1 0.15625 0  1.03125 0.15625 0  1.0625 0.15625 0  1.09375 0.15625 0  1.125 0.15625 0  1.15625 0.15625 0  1.1875 0.15625 0  1.21875 0.15625 0  1.25 0.15625 0  1.28125 0.15625 0  1.3125 0.15625 0  1.34375 0.15625 0  1.375 0.15625 0  1.40625 0.15625 0  1.4375 0.15625 0  1.46875 0.15625 0  1.5 0.15625 0  0 0.1875 0  0.03125 0.1875 0  0.0625 0.1875 0  0.09375 0.1875 0  0.125 0.1875 0  0.15625 0.1875 0  0.1875 0.1875 0  0.21875 0.1875 0  0.25 0.1875 0  0.28125 0.1875 0  0.3125 0.1875 0  0.34375 0.1875 0  0.375 0.1875 0  0.40625 0.1875 0  0.4375 0.1875 0  0.46875 0.1875 0  0.5 0.1875 0  0.53125 0.1875 0  0.5625 0.1875 0  0.59375 0.1875 0  0.625 0.1875 0  0.65625 0.1875 0  0.6875 0.1875 0  0.71875 0.1875 0  0.75 0.1875 0  0.78125 0.1875 0  0.8125 0.1875 0  0.84375 0.1875 0  0.875 0.1875 0  0.90625 0.1875 0  0.9375 0.1875 0  0.96875 0.1875 0  1 0.1875 0  1.03125 0.1875 0  1.0625 0.1875 0  1.09375 0.1875 0  1.125 0.1875 0  1.15625 0.1875 0  1.1875 0.1875 0  1.21875 0.1875 0  1.25 0.1875 0  1.28125 0.1875 0  1.3125 0.1875 0  1.34375 0.1875 0  1.375 0.1875 0  1.40625 0.1875 0  1.4375 0.1875 0  1.46875 0.1875 0  1.5 0.1875 0  0 0.21875 0  0.03125 0.21875 0  0.0625 0.21875 0  0.09375 0.21875 0  0.125 0.21875 0  0.15625 0.21875 0  0.1875 0.21875 0  0.21875 0.21875 0  0.25 0.21875 0  0.28125 0.21875 0  0.3125 0.21875 0  0.34375 0.21875 0  0.375 0.21875 0  0.40625 0.21875 0  0.4375 0.21875 0  0.46875 0.21875 0  0.5 0.21875 0  0.53125 0.21875 0  0.5625 0.21875 0  0.59375 0.21875 0  0.625 0.21875 0  0.65625 0.21875 0  0.6875 0.21875 0  0.71875 0.21875 0  0.75 0.21875 0  0.78125 0.21875 0  0.8125 0.21875 0  0.84375 0.21875 0  0.875 0.21875 0  0.90625 0.21875 0  0.9375 0.21875 0  0.96875 0.21875 0  1 0.21875 0  1.03125 0.21875 0  1.0625 0.21875 0  1.09375 0.21875 0  1.125 0.21875 0  1.15625 0.21875 0  1.1875 0.21875 0  1.21875 0.21875 0  1.25 0.21875 0  1.28125 0.21875 0  1.3125 0.21875 0  1.34375 0.21875 0  1.375 0.21875 0  1.40625 0.21875 0  1.4375 0.21875 0  1.46875 0.21875 0  1.5 0.21875 0  0 0.25 0  0.03125 0.25 0  0.0625 0.25 0  0.09375 0.25 0  0.125 0.25 0  0.15625 0.25 0  0.1875 0.25 0  0.21875 0.25 0  0.25 0.25 0  0.28125 0.25 0  0.3125 0.25 0  0.34375 0.25 0  0.375 0.25 0  0.40625 0.25 0  0.4375 0.25 0  0.46875 0.25 0  0.5 0.25 0  0.53125 0.25 0  0.5625 0.25 0  0.59375 0.25 0  0.625 0.25 0  0.65625 0.25 0  0.6875 0.25 0  0.71875 0.25 0  0.75 0.25 0  0.78125 0.25 0  0.8125 0.25 0  0.84375 0.25 0  0.875 0.25 0  0.90625 0.25 0  0.9375 0.25 0  0.96875 0.25 0  1 0.25 0  1.03125 0.25 0  1.0625 0.25 0  1.09375 0.25 0  1.125 0.25 0  1.15625 0.25 0  1.1875 0.25 0  1.21875 0.25 0  1.25 0.25 0  1.28125 0.25 0  1.3125 0.25 0  1.34375 0.25 0  1.375 0.25 0  1.40625 0.25 0  1.4375 0.25 0  1.46875 0.25 0  1.5 0.25 0  0 0.28125 0  0.03125 0.28125 0  0.0625 0.28125 0  0.09375 0.28125 0  0.125 0.28125 0  0.15625 0.28125 0  0.1875 0.28125 0  0.21875 0.28125 0  0.25 0.28125 0  0.28125 0.28125 0  0.3125 0.28125 0  0.34375 0.28125 0  0.375 0.28125 0  0.40625 0.28125 0  0.4375 0.28125 0  0.46875 0.28125 0  0.5 0.28125 0  0.53125 0.28125 0  0.5625 0.28125 0  0.59375 0.28125 0  0.625 0.28125 0  0.65625 0.28125 0  0.6875 0.28125 0  0.71875 0.28125 0  0.75 0.28125 0  0.78125 0.28125 0  0.8125 0.28125 0  0.84375 0.28125 0  0.875 0.28125 0  0.90625 0.28125 0  0.9375 0.28125 0  0.96875 0.28125 0  1 0.28125 0  1.03125 0.28125 0  1.0625 0.28125 0  1.09375 0.28125 0  1.125 0.28125 0  1.15625 0.28125 0  1.1875 0.28125 0  1.21875 0.28125 0  1.25 0.28125 0  1.28125 0.28125 0  1.3125 0.28125 0  1.34375 0.28125 0  1.375 0.28125 0  1.40625 0.28125 0  1.4375 0.28125 0  1.46875 0.28125 0  1.5 0.28125 0  0 0.3125 0  0.03125 0.3125 0  0.0625 0.3125 0  0.09375 0.3125 0  0.125 0.3125 0  0.15625 0.3125 0  0.1875 0.3125 0  0.21875 0.3125 0  0.25 0.3125 0  0.28125 0.3125 0  0.3125 0.3125 0  0.34375 0.3125 0  0.375 0.3125 0  0.40625 0.3125 0  0.4375 0.3125 0  0.46875 0.3125 0  0.5 0.3125 0  0.53125 0.3125 0  0.5625 0.3125 0  0.59375 0.3125 0  0.625 0.3125 0  0.65625 0.3125 0  0.6875 0.3125 0  0.71875 0.3125 0  0.75 0.3125 0  0.78125 0.3125 0  0.8125 0.3125 0  0.84375 0.3125 0  0.875 0.3125 0  0.90625 0.3125 0  0.9375 0.3125 0  0.96875 0.3125 0  1 0.3125 0  1.03125 0.3125 0  1.0625 0.3125 0  1.09375 0.3125 0  1.125 0.3125 0  1.15625 0.3125 0  1.1875 0.3125 0  1.21875 0.3125 0  1.25 0.3125 0  1.28125 0.3125 0  1.3125 0.3125 0  1.34375 0.3125 0  1.375 0.3125 0  1.40625 0.3125 0  1.4375 0.3125 0  1.46875 0.3125 0  1.5 0.3125 0  0 0.34375 0  0.03125 0.34375 0  0.0625 0.34375 0  0.09375 0.34375 0  0.125 0.34375 0  0.15625 0.34375 0  0.1875 0.34375 0  0.21875 0.34375 0  0.25 0.34375 0  0.28125 0.34375 0  0.3125 0.34375 0  0.34375 0.34375 0  0.375 0.34375 0  0.40625 0.34375 0  0.4375 0.34375 0  0.46875 0.34375 0  0.5 0.34375 0  0.53125 0.34375 0  0.5625 0.34375 0  0.59375 0.34375 0  0.625 0.34375 0  0.65625 0.34375 0  0.6875 0.34375 0  0.71875 0.34375 0  0.75 0.34375 0  0.78125 0.34375 0  0.8125 0.34375 0  0.84375 0.34375 0  0.875 0.34375 0  0.90625 0.34375 0  0.9375 0.34375 0  0.96875 0.34375 0  1 0.34375 0  1.03125 0.34375 0  1.0625 0.34375 0  1.09375 0.34375 0  1.125 0.34375 0  1.15625 0.34375 0  1.1875 0.34375 0  1.21875 0.34375 0  1.25 0.34375 0  1.28125 0.34375 0  1.3125 0.34375 0  1.34375 0.34375 0  1.375 0.34375 0  1
[...]
<PointData  Scalars="f_33"> 
<DataArray  type="Float64"  Name="f_33"  format="ascii">8.4699855749783677e-06  8.7213310121548250e-06  9.0506591294285325e-06  9.2660328928954411e-06  9.4834286291602384e-06  9.6993654657190363e-06  9.9052538121831146e-06  1.0098828322667718e-05  1.0276642425812377e-05  1.0436005289665351e-05  1.0574146706379289e-05  1.0688300733646856e-05  1.0775924312728293e-05  1.0834674671959613e-05  1.0862395394839224e-05  1.0857071602740928e-05  1.0816767428982980e-05  1.0739564441889748e-05  1.0623511075236664e-05  1.0466599577231042e-05  1.0266787174337625e-05  1.0022074630311357e-05  9.7306469288055728e-06  9.3910675914558380e-06  9.0025028748889906e-06  8.5649404372434838e-06  8.0793621968688904e-06  7.5478393337502377e-06  6.9735297140262540e-06  6.3605853176687331e-06  5.7139806334500779e-06  5.0393144101311772e-06  4.3425768676501789e-06  3.6299964945194897e-06  2.9078096752669534e-06  2.1823171228256991e-06  1.4595022440195388e-06  7.4566687285043422e-07  4.6121485533010920e-08  -6.3214627289546161e-07  -1.2857676099504855e-06  -1.9042380484157613e-06  -2.4914068840715137e-06  -3.0193152778267231e-06  -3.5190061070902885e-06  -3.8707673696835251e-06  -4.3210032206869700e-06  -4.9601637208443699e-06  -5.6288056152402702e-06  7.6787748353253432e-06  8.4705910727610299e-06  8.9129419703565698e-06  9.1255307705449519e-06  9.3319314730285235e-06  9.5568396700966056e-06  9.7765309679802218e-06  9.9844190240408829e-06  1.0176109387657609e-05  1.0348412277857642e-05  1.0498458528875524e-05  1.0623516624559127e-05  1.0721102238107133e-05  1.0788940735988997e-05  1.0824938762704052e-05  1.0827138291269522e-05  1.0793652378060071e-05  1.0722599005681081e-05  1.0612044045746035e-05  1.0459970845708997e-05  1.0264295498786724e-05  1.0022943751361233e-05  9.7339967537110595e-06  9.3958979783434771e-06  9.0076961839758010e-06  8.5692845127197654e-06  8.0815909091551415e-06  7.5466813538488995e-06  6.9677576720283258e-06  6.3490510718014592e-06  5.6956414017531299e-06  5.0132273204222897e-06  4.3079085303941305e-06  3.5859625234903700e-06  2.8537338132048279e-06  2.1174380827084204e-06  1.3832989937093300e-06  6.5714796629826207e-07  -5.4765193941175722e-08  -7.4730872595677773e-07  -1.4132353602912792e-06  -2.0490358147561055e-06  -2.6431784764842883e-06  -3.1949000906245892e-06  -3.6826725276029904e-06  -4.1062681817876674e-06  -4.4985815328410367e-06  -5.2091787887418922e-06  -6.4682268782725774e-06  6.4462932940394701e-06  7.8471938444907939e-06  8.5862176821662264e-06  8.9061396567478691e-06  9.1492405071551426e-06  9.4011581071699263e-06  9.6437639441865941e-06  9.8725732868706016e-06  1.0082983954332199e-05  1.0272091319348993e-05  1.0436999526064829e-05  1.0575243174558763e-05  1.0684560324913133e-05  1.0762871044574779e-05  1.0808266619789562e-05  1.0818953138179589e-05  1.0793186661585404e-05  1.0729195797253794e-05  1.0625107115308350e-05  1.0478895145289551e-05  1.0288381373022635e-05  1.0051306170503778e-05  9.7654879441033120e-06  9.4290647003937199e-06  9.0407887255214161e-06  8.6003225338238344e-06  8.1084757973576602e-06  7.5673306354909232e-06  6.9802324323588138e-06  6.3516491896440304e-06  5.6869453557199577e-06  4.9920997659137520e-06  4.2734576307857743e-06  3.5374677193766467e-06  2.7905961165447598e-06  2.0390689478505030e-06  1.2891529331027804e-06  5.4651149058554429e-07  -1.8243705144268057e-07  -8.9305925713014734e-07  -1.5771733978707743e-06  -2.2328951227619486e-06  -2.8451874720605372e-06  -3.4199734278915858e-06  -3.9283385360186391e-06  -4.3938804495630424e-06  -4.8711199553495895e-06  -5.8755788353218409e-06  -7.6673588691351257e-06  5.4105733763498215e-06  7.1482980195414619e-06  8.1455577482078543e-06  8.5876033906483753e-06  8.8976419762362290e-06  9.1902488408725717e-06  9.4678907254116069e-06  9.7261982950790091e-06  9.9633204180063834e-06  1.0176163116041459e-05  1.0362108925916518e-05  1.0519081250927270e-05  1.0645048360899768e-05  1.0738201154834109e-05  1.0796879507500897e-05  1.0819522870308310e-05  1.0804600332595884e-05  1.0750511154318081e-05  1.0655481774600061e-05  1.0517481162676183e-05  1.0334189308148050e-05  1.0103056541591919e-05  9.8214815886915004e-06  9.4871105927483134e-06  9.0982212781355751e-06  8.6541187314347119e-06  8.1554524524399065e-06  7.6043762698619854e-06  7.0045187980019730e-06  6.3607772626302332e-06  5.6790047380665109e-06  4.9656447214033963e-06  4.2274233205521997e-06  3.4710516925140535e-06  2.7031379724509329e-06  1.9299325255795637e-06  1.1576493232137081e-06  3.9181106060789955e-07  -3.6129969089716859e-07  -1.0972975950084470e-06  -1.8081445041306465e-06  -2.4925177535782166e-06  -3.1360333770323308e-06  -3.7474316091610325e-06  -4.3032425181879278e-06  -4.8414613624142249e-06  -5.4520033710976224e-06  -6.6640094724932981e-06  -8.6207017545107860e-06  4.6597038131861361e-06  6.5341773938152697e-06  7.6909022340855306e-06  8.2277735078015396e-06  8.6102828561168558e-06  8.9491961885507399e-06  9.2682681590179470e-06  9.5602786808458322e-06  9.8287645653763807e-06  1.0069236589336433e-05  1.0280111706214401e-05  1.0459416357159012e-05  1.0605345256090442e-05  1.0716359211954825e-05  1.0791039344028082e-05  1.0828083782601369e-05  1.0826208241400236e-05  1.0784021347853351e-05  1.0699880242232464e-05  1.0571752331679062e-05  1.0397132963374883e-05  1.0173076978488629e-05  9.8963965918039950e-06  9.5640430968147168e-06  9.1736288998004500e-06  8.7239802825614974e-06  8.2155777316126619e-06  7.6507603468339561e-06  7.0336487975097357e-06  6.3698219508792293e-06  5.6658635382765037e-06  4.9288725401667269e-06  4.1660786337221774e-06  3.3845072558572762e-06  2.5909072941424299e-06  1.7915042213976249e-06  9.9239561860888371e-07  1.9885624485100299e-07  -5.8305467035758393e-07  -1.3494126445934896e-06  -2.0924757572167065e-06  -2.8120472818981262e-06  -3.4946743557185516e-06  -4.1527051379745236e-06  -4.7669107115241157e-06  -5.3826093213323395e-06  -6.0964112367661746e-06  -7.4058046423124027e-06  -9.3777514843138181e-06  4.1217724222792161e-06  6.0337208306433672e-06  7.2651541072061449e-06  7.8659076987210911e-06  8.3095130168557468e-06  8.6940647659354720e-06  9.0560232190484552e-06  9.3836645346001160e-06  9.6859831004874863e-06  9.9563427185324111e-06  1.0194757670693344e-05  1.0398841204860431e-05  1.0567123101012411e-05  1.0698222537200012e-05  1.0790931659223646e-05  1.0844199919383409e-05  1.0856999268951235e-05  1.0828178826209653e-05  1.0756261757833263e-05  1.0639231924406513e-05  1.0474370178313953e-05  1.0258229827787473e-05  9.9868459386523054e-06  9.6562284073375352e-06  9.2630904151085625e-06  8.8056442419768076e-06  8.2842280871115527e-06  7.7015615122887902e-06  7.0625671309350074e-06  6.3738447305913757e-06  5.6429987298031651e-06  4.8779792038687879e-06  4.0866103033157406e-06  3.2762364972504556e-06  2.4536889936477389e-06  1.6250820427294324e-06  7.9628570491005826e-07  -2.7764347203077338e-08  -8.4136730748143849e-07  -1.6411073650355972e-06  -2.4197514027275875e-06  -3.1780420222847022e-06  -3.9036114365214493e-06  -4.6105896160995035e-06  -5.2818182042025234e-06  -5.9604491764179983e-06  -6.7391908279489230e-06  -8.0836953259627657e-06  -1.0032079691409872e-05  3.7253796499372768e-06  5.6334444756031889e-06  6.8894857094250060e-06  7.5287433967336515e-06  8.0172520993722323e-06  8.4421663459190083e-06  8.8440981322687519e-06  9.2068216314304637e-06  9.5430090027233325e-06  9.8439054082441945e-06  1.0110979428088764e-05  1.0341050668662555e-05  1.0533058540988601e-05  1.0685573047051404e-05  1.0797568724895242e-05  1.0868193738793768e-05  1.0896667520700619e-05  1.0882102867185077e-05  1.0823232626096508e-05  1.0718097727022954e-05  1.0563756977277556e-05  1.0356157091825422e-05  1.0090325696691017e-05  9.7610064264859001e-06  9.3636964901977267e-06  8.8958249264592803e-06  8.3576661586800013e-06  7.7526433221526069e-06  7.0869434163409043e-06  6.3686446948147102e-06  5.6067135348758585e-06  4.8101313935453899e-06  3.9873500195883434e-06  3.1459625372500128e-06  2.2927580265887788e-06  1.4335994731689028e-06  5.7400191153142739e-07  -2.8154125612341135e-07  -1.1277489833464785e-06  -1.9617291616488158e-06  -2.7766584824731534e-06  -3.5739457328599359e-06  -4.3415530110053676e-06  -5.0939142978091343e-06  -5.8130159150357078e-06  -6.5363353890669960e-06  -7.3499433081331541e-06  -8.6989810005212342e-06  -1.0620657323711727e-05  3.4261501755320601e-06  5.3158913748625672e-06  6.5714581433382033e-06  7.2302267928743290e-06  7.7481840541325028e-06  8.2058342206777597e-06  8.6424239483636106e-06  9.0378069235545337e-06  9.4062494190992278e-06  9.7371516559999649e-06  1.0032807918292469e-05  1.0289149475938164e-05  1.0505429049474219e-05  1.0679972639826729e-05  1.0811896419790667e-05  1.0900454566542003e-05  1.0945093396086002e-05  1.0945200864076370e-05  1.0899776661683410e-05  1.0806993609000867e-05  1.0663721319072766e-05  1.0465208365331576e-05  1.0205191436128068e-05  9.8766973676842697e-06  9.4735479499309961e-06  8.9921591415346650e-06  8.4329092703218286e-06  7.8004592785914628e-06  7.1029527709716535e-06  6.3505533147559605e-06  5.5539622383318753e-06  4.7233104361699245e-06  3.8676024621356166e-06  2.9945003498991053e-06  2.1105400246742042e-06  1.2211424716129923e-06  3.3132029755746960e-07  -5.5495803301850545e-07  -1.4328535919364586e-06  -2.2999101048023791e-06  -3.1495297109742451e-06  -3.9833227621570812e-06  -4.7889074850398410e-06  -5.5797488520995610e-06  -6.3356763900755844e-06  -7.0876928258710332e-06  -7.9169226567037925e-06  -9.2571583509743513e-06  -1.1154168833999104e-05  3.1971755000149333e-06  5.0654732823351721e-06  6.3095697025913172e-06  6.9753668829845946e-06  7.5107823495870798e-06  7.9933931651063840e-06  8.4585284654391466e-06  8.8829624547496825e-06  9.2809936822077089e-06  9.6403799459346954e-06  9.9635949888772718e-06  1.0245728358766299e-05  1.0486112357103941e-05  1.0682712033625268e-05  1.0834698899582957e-05  1.0941322107357364e-05  1.1002213598411496e-05  1.1017027014593914e-05  1.0985097413773687e-05  1.0904845527715210e-05  1.0773052645600939e-05  1.0584220169564630e-05  1.0330449237799708e-05  1.0002404896215616e-05  9.5915316180555312e-06  9.0929027787955964e-06  8.5073369165614307e-06  7.8416257508392589e-06  7.1069013705488140e-06  6.3161816962378099e-06  5.4822422976124288e-06  4.6163294289005991e-06  3.7277462246967082e-06  2.8238950346697428e-06  1.9107521784901817e-06  9.9306128263207104e-07  7.5182876073793371e-08  -8.3949901505807564e-07  -1.7465621772400964e-06  -2.6438578299273499e-06  -3.5247795373360750e-06  -4.3907449562578988e-06  -5.2285088459825733e-06  -6.0499652304937033e-06  -6.8324110619797107e-06  -7.6012309799517626e-06  -8.4346718555202137e-06  -9.7607718877112137e-06  -1.1636151736256205e-05  3.0219616799517165e-06  4.8700551557064681e-06  6.0986889249064936e-06  6.7639376603661024e-06  7.3084720480192393e-06  7.8092435931980022e-06  8.2970450814723842e-06  8.7464486738312634e-06  9.1708287358435339e-06  9.5564658171429028e-06  9.9055571905839458e-06  1.0212396463351610e-05  1.0476157726258990e-05  1.0694391365306753e-05  1.0866198898109619e-05  1.0990716873251768e-05  1.1067685868103390e-05  1.1096984839050472e-05  1.1078346386417860e-05  1.1010591754586324e-05  1.0890622738785115e-05  1.0712242393832098e-05  1.0465523600063069e-05  1.0137831547106181e-05  9.7171133270403131e-06  9.1966133628638713e-06  8.5782618218153454e-06  7.8724896267431146e-06  7.0949261928627757e-06  6.2623238381633067e-06  5.3896850104133579e-06  4.4890407135433245e-06  3.5694738489362402e-06  2.6376255259507497e-06  1.6985233086220824e-06  7.5598208903810778e-07  -1.8641724974128154e-07  -1.1258954783953912e-06  -2.0583859249815433e-06  -2.9818996535566697e-06  -3.8896192665340003e-06  -4.7824842007138148e-06  -5.6461340129707236e-06  -6.4907260613102774e-06  -7.2912552956561855e-06  -8.0686926508114370e-06  -8.9000117177675943e-06  -1.0210481516009159e-05  -1.2067101023452372e-05  2.8894059751280121e-06  4.7198288231460557e-06  5.9323408634354576e-06  6.5929738057983844e-06  7.1413112801976390e-06  7.6548276422511657e-06  8.1601968673893268e-06  8.6304972307441753e-06  9.0777378840594076e-06  9.4869305413508380e-06  9.8597291842371072e-06  1.0189672461380200e-05  1.0475619329254080e-05  1.0714683751310148e-05  1.0905776555850405e-05  1.1047826231658435e-05  1.1140567907818027e-05  1.1184021587754296e-05  1.1178331618462183e-05  1.1122881850239844e-05  1.1015052114955515e-05  1.0848176215973412e-05  1.0609936343073021e-05  1.0283032480895309e-05  9.8500563354520492e-06  9.3017052754393661e-06  8.6423724733187961e-06  7.8886813478961970e-06  7.0628535970864955e-06  6.1861535335873446e-06  5.2754879356022206e-06  4.3428537011418154e-06  3.3962716457504080e-06  2.4409710844181223e-06  1.4806178422731003e-06  5.1788786983216211e-07  -4.4448153199099442e-07  -1.4042787436856536e-06  -2.3576948296062775e-06  -3.3027554097691308e-06  -4.2322779606829498e-06  -5.1465680306521657e-06  -6.0300890357893833e-06  -6.8913816973240559e-06  -7.7035550477428923e-06  -8.4843157957103608e-06  -9.3103115722642460e-06  -1.0605608640775804e-05  -1.2446283572283682e-05  2.7911258996066233e-06  4.6066387878795864e-06  5.8040504165229570e-06  6.4583331307081113e-06  7.0073280042074038e-06  7.5295405499867469e-06  8.0482888469376757e-06  8.5356542639093924e-06  9.0022258802051648e-06  9.4319809086568193e-06  9.8259161862166976e-06  1.0176890796040588e-05  1.0483384120138432e-05  1.0742085257584978e-05  1.0951641897359902e-05  1.1110704799337465e-05  1.1218879724671662e-05  1.1276189197795656e-05  1.1283105585860944e-05  1.1239680545083607e-05  1.1144266218316235e-05  1.0990228001221877e-05  1.0762788772882531e-05  1.0438007715494904e-05  9.9899447754173901e-06  9.4057665615153060e-06  8.6950490212434335e-06  7.8848218990814823e-06  7.0064962742695712e-06  6.0859899517690478e-06  5.1408638852001526e-06  4.1816238388304923e-06  3.2141041400792760e-06  2.2414474790345964e-06  1.2656395242564079e-06  2.8813439242609661e-07  -6.8912682765414735e-07  -1.6643867590314576e-06  -2.6339615783332751e-06  -3.5957555250369237e-06  -4.5421208476916609e-06  -5.4726740062140250e-06  -6.3707688790860182e-06  -7.2435723823533588e-06  -8.0627381560229917e-06  -8.8436413967719673e-06  -9.6630808205781950e-06  -1.0944731924621865e-05  -1.2772202487097980e-05  2.7203481003823062e-06  4.5236551445319853e-06  5.7078692285847126e-06  6.3555506241886421e-06  6.9035508744829279e-06  7.4315646947553545e-06  7.9603072424138176e-06  8.4612175818500328e-06  8.9436319712059309e-06  9.3907208033889168e-06  9.8028363972927221e-06  1.0172276162552018e-05  1.0497153850494944e-05  1.0773794611943881e-05  1.1000581754772085e-05  1.1175878944936091e-05  1.1299078810772952e-05  1.1370042179162914e-05  1.1389375534443374e-05  1.1357723546249402e-05  1.1274886795560379e-05  1.1135062569423761e-05  1.0921868861637608e-05  1.0601845527754373e-05  1.0135191765039138e-05  9.5045182252752253e-06  8.7297404974490650e-06  7.8548711082721599e-06  6.9229564214384376e-06  5.9630115810729167e-06  4.9906607831722027e-06  4.0128740693556005e-06  3.0321727466768322e-06  2.0491578635723308e-06  1.0640808280290880e-06  7.7303742087679245e-08  -9.0983921819969810e-07  -1.8958558631869228e-06  -2.8770321369441879e-06  -3.8510356595181046e-06  -4.8097045271783850e-06  -5.7519871477909858e-06  -6.6602627373771671e-06  -7.5406088395762338e-06  -8.3635886914455677e-06  -9.1429764401037891e-06  -9.9558905231405281e-06  -1.1226041993454115e-05  -1.3042994497617132e-05  2.6715408020859698e-06  4.4652437856217442e-06  5.6386418644329108e-06  6.2803950054480936e-06  6.8267445919977005e-06  7.3585288937561773e-06  7.8944986680710333e-06  8.4057161447752104e-06  8.9005166757419020e-06  9.3614772880739560e-06  9.7884060977465559e-06  1.0173181052177273e-05  1.0513622555041795e-05  1.0805797853944337e-05  1.1047896315068935e-05  1.1238074603960133e-05  1.1375521069241107e-05  1.1459853894578936e-05  1.1491588175515128e-05  1.1471641307485180e-05  1.1401373130800557e-05  1.1276569113311362e-05  1.1081989708056262e-05  1.0770601303907857e-05  1.0280926007379313e-05  9.5905260974532719e-06  8.7383103933044395e-06  7.7943467399616300e-06  6.8137811375082320e-06  5.8242693890692933e-06  4.8355188861233253e-06  3.8490258081095048e-06  2.8633820556729967e-06  1.8767513890505841e-06  8.8799260248455098e-07  -1.0325603065350655e-07  -1.0959610844858929e-06  -2.0886690173132258e-06  -3.0774910693500002e-06  -4.0597836698331412e-06  -5.0268767799631932e-06  -5.9771305612096205e-06  -6.8921225237187719e-06  -7.7771267855161883e-06  -8.6019072489032935e-06  -9.3792111547487927e-06  -1.0186462880537072e-05  -1.1447636770745976e-05  -1.3256711671695346e-05  2.6403359588679387e-06  4.4269444326744705e-06  5.5921707258911812e-06  6.2292346739975730e-06  6.7739202589344866e-06  7.3080395069821873e-06  7.8489015628633611e-06  8.3673922364754446e-06  8.8711079010267352e-06  9.3422319624370442e-06  9.7801702066413358e-06  1.0176525762634776e-05  1.0528925334495369e-05  1.0833297651168381e-05  1.1087748381765888e-05  1.1290367161104841e-05  1.1440256045906583e-05  1.1536909253204502e-05  1.1580691042197372e-05  1.1572516324420919e-05  1.1514643487312238e-05  1.1404072932838872e-05  1.1231669029116308e-05  1.0932111709335887e-05  1.0414856258615676e-05  9.6535308881581184e-06  8.7151281850273023e-06  7.7063467796638110e-06  6.6908311518507391e-06  5.6865303439365501e-06  4.6937484476595911e-06  3.7077725444555418e-06  2.7238690838865666e-06  1.7385704324681958e-06  7.5003658774545873e-07  -2.4232457759161259e-07  -1.2374646835437853e-06  -2.2337840366367314e-06  -3.2271363841223537e-06  -4.2145593799065281e-06  -5.1869427367108303e-06  -6.1421893736071851e-06  -7.0612720807444759e-06  -7.9489394578012107e-06  -8.7743866085860036e-06  -9.5498041907968977e-06  -1.0352804482864292e-05  -1.1607754310203091e-05  -1.3411556975083036e-05  2.6235469054804809e-06  4.4054993855853127e-06  5.5653413731427801e-06  6.1992933927012279e-06  6.7426971488050956e-06  7.2780945475581096e-06  7.8217887796359492e-06  8.3446401482684104e-06  8.8537509392199692e-06  9.3310959880677590e-06  9.7758282372569190e-06  1.0179407147330883e-05  1.0539358328710457e-05  1.0851563748900294e-05  1.1114129448791312e-05  1.1325180240592426e-05  1.1483864881937347e-05  1.1589759061274228e-05  1.1643248546210043e-05  1.1645381969384337e-05  1.1598372358292105e-05  1.1499381573236732e-05  1.1348345922772364e-05  1.1057139505449160e-05  1.0513666486300691e-05  9.6887015209981111e-06  8.6693679144508289e-06  7.6129968956108006e-06  6.5830778247262805e-06  5.5786634380377863e-06  4.5906615522017152e-06  3.6101681308530824e-06  2.6308025329667108e-06  1.6486362774304934e-06  6.6181155325080904e-07  -3.3013515740819785e-07  -1.3259715279387880e-06  -2.3238964752283727e-06  -3.3195288828238070e-06  -4.3096639571873451e-06  -5.2848827094466192e-06  -6.2428062345035993e-06  -7.1640179678319625e-06  -8.0530121200248212e-06  -8.8786053959750351e-06  -9.6528406362250471e-06  -1.0453344078764880e-05  -1.1704960456730747e-05  -1.3506071665643234e-05  2.6192076586979440e-06  4.3988961425387978e-06  5.5562174106372183e-06  6.1888242472632692e-06  6.7315500071182514e-06  7.2673836663751847e-06  7.8120035021474101e-06  8.3363635723467786e-06  8.8472992064909571e-06  9.3267498926110827e-06  9.7737598041454201e-06  1.0179758761036684e-05  1.0542241032076263e-05  1.0857087230297371e-05  1.1122415597210457e-05  1.1336376774973225e-05  1.1498158813387985e-05  1.1607406714512210e-05  1.1664557177880398e-05  1.1670823097735659e-05  1.1628086136306061e-05  1.1534179917659508e-05  1.1393248814828069e-05  1.1109506973105296e-05  1.0550791651298080e-05  9.7041195624009790e-06  8.6480183829378391e-06  7.5654747457119930e-06  6.5363373964218242e-06  5.5358146960269750e-06  4.5520852713647354e-06  3.5750423106295031e-06  2.5981423506130133e-06  1.6175918098066013e-06  6.3168381742424437e-07  -3.5990859257705514e-07  -1.3558388526725964e-06  -2.3542066548