<?xml version="1.0"?>
<VTKFile type="UnstructuredGrid"  version="0.1"  >
<UnstructuredGrid>
<Piece  NumberOfPoints="1617" NumberOfCells="3072">
<Points>
<DataArray  type="Float64"  NumberOfComponents="3"  format="ascii">0 0 0  0.03125 0 0  0.0625 0 0  0.09375 0 0  0.125 0 0  0.15625 0 0  0.1875 0 0  0.21875 0 0  0.25 0 0  0.28125 0 0  0.3125 0 0  0.34375 0 0  0.375 0 0  0.40625 0 0  0.4375 0 0  0.46875 0 0  0.5 0 0  0.53125 0 0  0.5625 0 0  0.59375 0 0  0.625 0 0  0.65625 0 0  0.6875 0 0  0.71875 0 0  0.75 0 0  0.78125 0 0  0.8125 0 0  0.84375 0 0  0.875 0 0  0.90625 0 0  0.9375 0 0  0.96875 0 0  1 0 0  1.03125 0 0  1.0625 0 0  1.09375 0 0  1.125 0 0  1.15625 0 0  1.1875 0 0  1.21875 0 0  1.25 0 0  1.28125 0 0  1.3125 0 0  1.34375 0 0  1.375 0 0  1.40625 0 0  1.4375 0 0  1.46875 0 0  1.5 0 0  0 0.03125 0  0.03125 0.03125 0  0.0625 0.03125 0  0.09375 0.03125 0  0.125 0.03125 0  0.15625 0.03125 0  0.1875 0.03125 0  0.21875 0.03125 0  0.25 0.03125 0  0.28125 0.03125 0  0.3125 0.03125 0  0.34375 0.03125 0  0.375 0.03125 0  0.40625 0.03125 0  0.4375 0.03125 0  0.46875 0.03125 0  0.5 0.03125 0  0.53125 0.03125 0  0.5625 0.03125 0  0.59375 0.03125 0  0.625 0.03125 0  0.65625 0.03125 0  0.6875 0.03125 0  0.71875 0.03125 0  0.75 0.03125 0  0.78125 0.03125 0  0.8125 0.03125 0  0.84375 0.03125 0  0.875 0.03125 0  0.90625 0.03125 0  0.9375 0.03125 0  0.96875 0.03125 0  1 0.03125 0  1.03125 0.03125 0  1.0625 0.03125 0  1.09375 0.03125 0  1.125 0.03125 0  1.15625 0.03125 0  1.1875 0.03125 0  1.21875 0.03125 0  1.25 0.03125 0  1.28125 0.03125 0  1.3125 0.03125 0  1.34375 0.03125 0  1.375 0.03125 0  1.40625 0.03125 0  1.4375 0.03125 0  1.46875 0.03125 0  1.5 0.03125 0  0 0.0625 0  0.03125 0.0625 0  0.0625 0.0625 0  0.09375 0.0625 0  0.125 0.0625 0  0.15625 0.0625 0  0.1875 0.0625 0  0.21875 0.0625 0  0.25 0.0625 0  0.28125 0.0625 0  0.3125 0.0625 0  0.34375 0.0625 0  0.375 0.0625 0  0.40625 0.0625 0  0.4375 0.0625 0  0.46875 0.0625 0  0.5 0.0625 0  0.53125 0.0625 0  0.5625 0.0625 0  0.59375 0.0625 0  0.625 0.0625 0  0.65625 0.0625 0  0.6875 0.0625 0  0.71875 0.0625 0  0.75 0.0625 0  0.78125 0.0625 0  0.8125 0.0625 0  0.84375 0.0625 0  0.875 0.0625 0  0.90625 0.0625 0  0.9375 0.0625 0  0.96875 0.0625 0  1 0.0625 0  1.03125 0.0625 0  1.0625 0.0625 0  1.09375 0.0625 0  1.125 0.0625 0  1.15625 0.0625 0  1.1875 0.0625 0  1.21875 0.0625 0  1.25 0.0625 0  1.28125 0.0625 0  1.3125 0.0625 0  1.34375 0.0625 0  1.375 0.0625 0  1.40625 0.0625 0  1.4375 0.0625 0  1.46875 0.0625 0  1.5 0.0625 0  0 0.09375 0  0.03125 0.09375 0  0.0625 0.09375 0  0.09375 0.09375 0  0.125 0.09375 0  0.15625 0.09375 0  0.1875 0.09375 0  0.21875 0.09375 0  0.25 0.09375 0  0.28125 0.09375 0  0.3125 0.09375 0  0.34375 0.09375 0  0.375 0.09375 0  0.40625 0.09375 0  0.4375 0.09375 0  0.46875 0.09375 0  0.5 0.09375 0  0.53125 0.09375 0  0.5625 0.09375 0  0.59375 0.09375 0  0.625 0.09375 0  0.65625 0.09375 0  0.6875 0.09375 0  0.71875 0.09375 0  0.75 0.09375 0  0.78125 0.09375 0  0.8125 0.09375 0  0.84375 0.09375 0  0.875 0.09375 0  0.90625 0.09375 0  0.9375 0.09375 0  0.96875 0.09375 0  1 0.09375 0  1.03125 0.09375 0  1.0625 0.09375 0  1.09375 0.09375 0  1.125 0.09375 0  1.15625 0.09375 0  1.1875 0.09375 0  1.21875 0.09375 0  1.25 0.09375 0  1.28125 0.09375 0  1.3125 0.09375 0  1.34375 0.09375 0  1.375 0.09375 0  1.40625 0.09375 0  1.4375 0.09375 0  1.46875 0.09375 0  1.5 0.09375 0  0 0.125 0  0.03125 0.125 0  0.0625 0.125 0  0.09375 0.125 0  0.125 0.125 0  0.15625 0.125 0  0.1875 0.125 0  0.21875 0.125 0  0.25 0.125 0  0.28125 0.125 0  0.3125 0.125 0  0.34375 0.125 0  0.375 0.125 0  0.40625 0.125 0  0.4375 0.125 0  0.46875 0.125 0  0.5 0.125 0  0.53125 0.125 0  0.5625 0.125 0  0.59375 0.125 0  0.625 0.125 0  0.65625 0.125 0  0.6875 0.125 0  0.71875 0.125 0  0.75 0.125 0  0.78125 0.125 0  0.8125 0.125 0  0.84375 0.125 0  0.875 0.125 0  0.90625 0.125 0  0.9375 0.125 0  0.96875 0.125 0  1 0.125 0  1.03125 0.125 0  1.0625 0.125 0  1.09375 0.125 0  1.125 0.125 0  1.15625 0.125 0  1.1875 0.125 0  1.21875 0.125 0  1.25 0.125 0  1.28125 0.125 0  1.3125 0.125 0  1.34375 0.125 0  1.375 0.125 0  1.40625 0.125 0  1.4375 0.125 0  1.46875 0.125 0  1.5 0.125 0  0 0.15625 0  0.03125 0.15625 0  0.0625 0.15625 0  0.09375 0.15625 0  0.125 0.15625 0  0.15625 0.15625 0  0.1875 0.15625 0  0.21875 0.15625 0  0.25 0.15625 0  0.28125 0.15625 0  0.3125 0.15625 0  0.34375 0.15625 0  0.375 0.15625 0  0.40625 0.15625 0  0.4375 0.15625 0  0.46875 0.15625 0  0.5 0.15625 0  0.53125 0.15625 0  0.5625 0.15625 0  0.59375 0.15625 0  0.625 0.15625 0  0.65625 0.15625 0  0.6875 0.15625 0  0.71875 0.15625 0  0.75 0.15625 0  0.78125 0.15625 0  0.8125 0.15625 0  0.84375 0.15625 0  0.875 0.15625 0  0.90625 0.15625 0  0.9375 0.15625 0  0.96875 0.15625 0  1 0.15625 0  1.03125 0.15625 0  1.0625 0.15625 0  1.09375 0.15625 0  1.125 0.15625 0  1.15625 0.15625 0  1.1875 0.15625 0  1.21875 0.15625 0  1.25 0.15625 0  1.28125 0.15625 0  1.3125 0.15625 0  1.34375 0.15625 0  1.375 0.15625 0  1.40625 0.15625 0  1.4375 0.15625 0  1.46875 0.15625 0  1.5 0.15625 0  0 0.1875 0  0.03125 0.1875 0  0.0625 0.1875 0  0.09375 0.1875 0  0.125 0.1875 0  0.15625 0.1875 0  0.1875 0.1875 0  0.21875 0.1875 0  0.25 0.1875 0  0.28125 0.1875 0  0.3125 0.1875 0  0.34375 0.1875 0  0.375 0.1875 0  0.40625 0.1875 0  0.4375 0.1875 0  0.46875 0.1875 0  0.5 0.1875 0  0.53125 0.1875 0  0.5625 0.1875 0  0.59375 0.1875 0  0.625 0.1875 0  0.65625 0.1875 0  0.6875 0.1875 0  0.71875 0.1875 0  0.75 0.1875 0  0.78125 0.1875 0  0.8125 0.1875 0  0.84375 0.1875 0  0.875 0.1875 0  0.90625 0.1875 0  0.9375 0.1875 0  0.96875 0.1875 0  1 0.1875 0  1.03125 0.1875 0  1.0625 0.1875 0  1.09375 0.1875 0  1.125 0.1875 0  1.15625 0.1875 0  1.1875 0.1875 0  1.21875 0.1875 0  1.25 0.1875 0  1.28125 0.1875 0  1.3125 0.1875 0  1.34375 0.1875 0  1.375 0.1875 0  1.40625 0.1875 0  1.4375 0.1875 0  1.46875 0.1875 0  1.5 0.1875 0  0 0.21875 0  0.03125 0.21875 0  0.0625 0.21875 0  0.09375 0.21875 0  0.125 0.21875 0  0.15625 0.21875 0  0.1875 0.21875 0  0.21875 0.21875 0  0.25 0.21875 0  0.28125 0.21875 0  0.3125 0.21875 0  0.34375 0.21875 0  0.375 0.21875 0  0.40625 0.21875 0  0.4375 0.21875 0  0.46875 0.21875 0  0.5 0.21875 0  0.53125 0.21875 0  0.5625 0.21875 0  0.59375 0.21875 0  0.625 0.21875 0  0.65625 0.21875 0  0.6875 0.21875 0  0.71875 0.21875 0  0.75 0.21875 0  0.78125 0.21875 0  0.8125 0.21875 0  0.84375 0.21875 0  0.875 0.21875 0  0.90625 0.21875 0  0.9375 0.21875 0  0.96875 0.21875 0  1 0.21875 0  1.03125 0.21875 0  1.0625 0.21875 0  1.09375 0.21875 0  1.125 0.21875 0  1.15625 0.21875 0  1.1875 0.21875 0  1.21875 0.21875 0  1.25 0.21875 0  1.28125 0.21875 0  1.3125 0.21875 0  1.34375 0.21875 0  1.375 0.21875 0  1.40625 0.21875 0  1.4375 0.21875 0  1.46875 0.21875 0  1.5 0.21875 0  0 0.25 0  0.03125 0.25 0  0.0625 0.25 0  0.09375 0.25 0  0.125 0.25 0  0.15625 0.25 0  0.1875 0.25 0  0.21875 0.25 0  0.25 0.25 0  0.28125 0.25 0  0.3125 0.25 0  0.34375 0.25 0  0.375 0.25 0  0.40625 0.25 0  0.4375 0.25 0  0.46875 0.25 0  0.5 0.25 0  0.53125 0.25 0  0.5625 0.25 0  0.59375 0.25 0  0.625 0.25 0  0.65625 0.25 0  0.6875 0.25 0  0.71875 0.25 0  0.75 0.25 0  0.78125 0.25 0  0.8125 0.25 0  0.84375 0.25 0  0.875 0.25 0  0.90625 0.25 0  0.9375 0.25 0  0.96875 0.25 0  1 0.25 0  1.03125 0.25 0  1.0625 0.25 0  1.09375 0.25 0  1.125 0.25 0  1.15625 0.25 0  1.1875 0.25 0  1.21875 0.25 0  1.25 0.25 0  1.28125 0.25 0  1.3125 0.25 0  1.34375 0.25 0  1.375 0.25 0  1.40625 0.25 0  1.4375 0.25 0  1.46875 0.25 0  1.5 0.25 0  0 0.28125 0  0.03125 0.28125 0  0.0625 0.28125 0  0.09375 0.28125 0  0.125 0.28125 0  0.15625 0.28125 0  0.1875 0.28125 0  0.21875 0.28125 0  0.25 0.28125 0  0.28125 0.28125 0  0.3125 0.28125 0  0.34375 0.28125 0  0.375 0.28125 0  0.40625 0.28125 0  0.4375 0.28125 0  0.46875 0.28125 0  0.5 0.28125 0  0.53125 0.28125 0  0.5625 0.28125 0  0.59375 0.28125 0  0.625 0.28125 0  0.65625 0.28125 0  0.6875 0.28125 0  0.71875 0.28125 0  0.75 0.28125 0  0.78125 0.28125 0  0.8125 0.28125 0  0.84375 0.28125 0  0.875 0.28125 0  0.90625 0.28125 0  0.9375 0.28125 0  0.96875 0.28125 0  1 0.28125 0  1.03125 0.28125 0  1.0625 0.28125 0  1.09375 0.28125 0  1.125 0.28125 0  1.15625 0.28125 0  1.1875 0.28125 0  1.21875 0.28125 0  1.25 0.28125 0  1.28125 0.28125 0  1.3125 0.28125 0  1.34375 0.28125 0  1.375 0.28125 0  1.40625 0.28125 0  1.4375 0.28125 0  1.46875 0.28125 0  1.5 0.28125 0  0 0.3125 0  0.03125 0.3125 0  0.0625 0.3125 0  0.09375 0.3125 0  0.125 0.3125 0  0.15625 0.3125 0  0.1875 0.3125 0  0.21875 0.3125 0  0.25 0.3125 0  0.28125 0.3125 0  0.3125 0.3125 0  0.34375 0.3125 0  0.375 0.3125 0  0.40625 0.3125 0  0.4375 0.3125 0  0.46875 0.3125 0  0.5 0.3125 0  0.53125 0.3125 0  0.5625 0.3125 0  0.59375 0.3125 0  0.625 0.3125 0  0.65625 0.3125 0  0.6875 0.3125 0  0.71875 0.3125 0  0.75 0.3125 0  0.78125 0.3125 0  0.8125 0.3125 0  0.84375 0.3125 0  0.875 0.3125 0  0.90625 0.3125 0  0.9375 0.3125 0  0.96875 0.3125 0  1 0.3125 0  1.03125 0.3125 0  1.0625 0.3125 0  1.09375 0.3125 0  1.125 0.3125 0  1.15625 0.3125 0  1.1875 0.3125 0  1.21875 0.3125 0  1.25 0.3125 0  1.28125 0.3125 0  1.3125 0.3125 0  1.34375 0.3125 0  1.375 0.3125 0  1.40625 0.3125 0  1.4375 0.3125 0  1.46875 0.3125 0  1.5 0.3125 0  0 0.34375 0  0.03125 0.34375 0  0.0625 0.34375 0  0.09375 0.34375 0  0.125 0.34375 0  0.15625 0.34375 0  0.1875 0.34375 0  0.21875 0.34375 0  0.25 0.34375 0  0.28125 0.34375 0  0.3125 0.34375 0  0.34375 0.34375 0  0.375 0.34375 0  0.40625 0.34375 0  0.4375 0.34375 0  0.46875 0.34375 0  0.5 0.34375 0  0.53125 0.34375 0  0.5625 0.34375 0  0.59375 0.34375 0  0.625 0.34375 0  0.65625 0.34375 0  0.6875 0.34375 0  0.71875 0.34375 0  0.75 0.34375 0  0.78125 0.34375 0  0.8125 0.34375 0  0.84375 0.34375 0  0.875 0.34375 0  0.90625 0.34375 0  0.9375 0.34375 0  0.96875 0.34375 0  1 0.34375 0  1.03125 0.34375 0  1.0625 0.34375 0  1.09375 0.34375 0  1.125 0.34375 0  1.15625 0.34375 0  1.1875 0.34375 0  1.21875 0.34375 0  1.25 0.34375 0  1.28125 0.34375 0  1.3125 0.34375 0  1.34375 0.34375 0  1.375 0.34375 0  1
[...]
<PointData  Scalars="f_33"> 
<DataArray  type="Float64"  Name="f_33"  format="ascii">2.0500128677353715e-05  2.1160379294030571e-05  2.1484914783435840e-05  2.1357747178403806e-05  2.0941174435296866e-05  2.0390738646670107e-05  1.9771485984103221e-05  1.9125037504642726e-05  1.8475636698219157e-05  1.7835163601646934e-05  1.7208068749573219e-05  1.6594875792749049e-05  1.5994301182143525e-05  1.5404356700672434e-05  1.4822834388097641e-05  1.4247470875967086e-05  1.3675969541535247e-05  1.3105975000714587e-05  1.2535049615666143e-05  1.1960681945330975e-05  1.1380348098670460e-05  1.0791639270133630e-05  1.0192457712442963e-05  9.5812684261997673e-06  8.9573776538872062e-06  8.3211968246757362e-06  7.6744470225863241e-06  7.0202669935335685e-06  6.3632056238439879e-06  5.7091023378103611e-06  5.0648792108763794e-06  4.4382814596049688e-06  3.8376064365935189e-06  3.2714564410949962e-06  2.7485405491792445e-06  2.2775376695853633e-06  1.8670142664011480e-06  1.5253644940983456e-06  1.2606638723952636e-06  1.0802655642911317e-06  9.8964299458263386e-07  9.9033571844144545e-07  1.0754622404754552e-06  1.2252481920059581e-06  1.3944805529732151e-06  1.5622657913919572e-06  1.3930490230605863e-06  8.4281789568263826e-07  3.2810384070743327e-07  2.0196755085342977e-05  2.0995014022334646e-05  2.1436587706063478e-05  2.1335676325156847e-05  2.0884589069416318e-05  2.0316148025310461e-05  1.9687243757948484e-05  1.9037143544261459e-05  1.8389033910056461e-05  1.7753259031431766e-05  1.7132834991344206e-05  1.6527211793397320e-05  1.5934415358299049e-05  1.5352063701470719e-05  1.4777746194103846e-05  1.4209103637398597e-05  1.3643794759523344e-05  1.3079436339241697e-05  1.2513557965276640e-05  1.1943596157696934e-05  1.1366947325537323e-05  1.0781093649826687e-05  1.0183805458005378e-05  9.5734075052922409e-06  8.9490780798769233e-06  8.3111350263166782e-06  7.6612580408951191e-06  7.0026054239434291e-06  6.3398041324875818e-06  5.6788179107633610e-06  5.0267212881814944e-06  4.3914211644882020e-06  3.7813706734083729e-06  3.2053139919224799e-06  2.6720895548043690e-06  2.1905064425615675e-06  1.7692906889291446e-06  1.4170757922410984e-06  1.1423292470432783e-06  9.5304260830182113e-07  8.5562879077232332e-07  8.5286321776112411e-07  9.3896516039966113e-07  1.0953353254704197e-06  1.2729013132906824e-06  1.4607547044069058e-06  1.2960153832878772e-06  6.9346635183181751e-07  -2.3597097170487434e-08  1.9987085792823621e-05  2.0882632663056856e-05  2.1443868244227346e-05  2.1409606517485952e-05  2.0918345449831787e-05  2.0316000543886659e-05  1.9655822832339659e-05  1.8982019552195684e-05  1.8319338650097678e-05  1.7676742950572264e-05  1.7055116495365853e-05  1.6451940195903481e-05  1.5863749596302605e-05  1.5287166834140108e-05  1.4719170525223842e-05  1.4157045998230658e-05  1.3598243674001876e-05  1.3040238602770629e-05  1.2480425992218614e-05  1.1916072112439032e-05  1.1344339587733983e-05  1.0762404699769728e-05  1.0167674484253438e-05  9.5580917338535919e-06  8.9324906745199955e-06  8.2909440444724680e-06  7.6350340388272791e-06  6.9679913076025224e-06  6.2946754357155074e-06  5.6214066048928853e-06  4.9556887041775995e-06  4.3058804494867249e-06  3.6808718334425861e-06  3.0898129511689379e-06  2.5419274125765424e-06  2.0464285350342645e-06  1.6125379853516553e-06  1.2495830556698403e-06  9.6704773603849994e-07  7.7436944879552390e-07  6.7978254432147191e-07  6.8798181983343746e-07  7.9416157329800419e-07  9.7870325336728311e-07  1.1863877718538033e-06  1.3975345885659572e-06  1.1832596198177183e-06  4.8335264643245337e-07  -4.1235527682140897e-07  1.9890964855381929e-05  2.0827685845818918e-05  2.1474141297288717e-05  2.1506881097844351e-05  2.0995160769954239e-05  2.0364700611332808e-05  1.9668298291998966e-05  1.8962395353160260e-05  1.8275960390024984e-05  1.7618179827160029e-05  1.6988564047607331e-05  1.6382778916488471e-05  1.5795693073512413e-05  1.5222639033797461e-05  1.4659692227884859e-05  1.4103540951011301e-05  1.3551243775713399e-05  1.2999993766963119e-05  1.2446930681453300e-05  1.1889022727399184e-05  1.1323042402013920e-05  1.0745663855292806e-05  1.0153699793722626e-05  9.5444696860847357e-06  8.9162523698946430e-06  8.2687393485605335e-06  7.6033891716272378e-06  6.9236007464892107e-06  6.2346701583749825e-06  5.5435522142914660e-06  4.8584919919584783e-06  4.1886102799757224e-06  3.5435209941380051e-06  2.9330385072198980e-06  2.3670095820902952e-06  1.8552852965559093e-06  1.4078255125764268e-06  1.0348966316927757e-06  7.4720062399193535e-07  5.5565456092619321e-07  4.6999029457437590e-07  4.9580432841956677e-07  6.2742108523754982e-07  8.4096615459961792e-07  1.0713239371799845e-06  1.2833016433538541e-06  1.0159459677127412e-06  2.2497655778015032e-07  -7.5814286420278990e-07  1.9903454522575924e-05  2.0862396694495108e-05  2.1555220603899365e-05  2.1625022475149733e-05  2.1104506069312734e-05  2.0451992317911467e-05  1.9720783479882721e-05  1.8980984363269412e-05  1.8266292374591047e-05  1.7587653987446038e-05  1.6944370638169061e-05  1.6330958495080554e-05  1.5740886807271481e-05  1.5168221281863639e-05  1.4608035126100780e-05  1.4056281834345047e-05  1.3509494486497192e-05  1.2964467210877987e-05  1.2417976551800806e-05  1.1866575080230548e-05  1.1306495706464293e-05  1.0733714005926375e-05  1.0144207818714236e-05  9.5344171957694544e-06  8.9018457494045869e-06  8.2456795189289318e-06  7.5672679539324296e-06  6.8703397202105641e-06  6.1609062300918384e-06  5.4468994029795678e-06  4.7376549940601516e-06  4.0433698505647641e-06  3.3746392633651860e-06  2.7421410174541515e-06  2.1564948842478877e-06  1.6282985163704112e-06  1.1683119038636644e-06  7.8772148025347470e-07  4.9827378874206201e-07  3.1192488395291300e-07  2.3907427929434685e-07  2.8494371137942700e-07  4.4141117864412643e-07  6.7909998027488116e-07  9.2348590538475343e-07  1.1284590926168853e-06  8.2293111693844813e-07  -1.9214302258208001e-08  -1.0387919628241499e-06  1.9997566600724335e-05  2.0967620679512812e-05  2.1681261680376845e-05  2.1766740227765051e-05  2.1239360089670576e-05  2.0566922212256494e-05  1.9804478636531507e-05  1.9032465528155196e-05  1.8288639823763827e-05  1.7586576321827315e-05  1.6926218253089358e-05  1.6301612430404281e-05  1.5705258357606277e-05  1.5130165048122029e-05  1.4570461926571391e-05  1.4021344898950745e-05  1.3478767056096414e-05  1.2939062829354688e-05  1.2398581774539892e-05  1.1853379104070119e-05  1.1299022777011578e-05  1.0730597303412769e-05  1.0142983347712955e-05  9.5314445306155823e-06  8.8924516429710171e-06  8.2245558647358878e-06  7.5290581905847854e-06  6.8102700672160448e-06  6.0753055554033453e-06  5.3335061293816489e-06  4.5956931115221823e-06  3.8734450029277209e-06  3.1785382850949465e-06  2.5226166637121364e-06  1.9170955837556072e-06  1.3732732809562872e-06  9.0258855018469873e-07  5.1692069001917467e-07  2.2867720080006022e-07  5.0263221138368403e-08  -8.0506805385289375e-09  5.7706097044823166e-08  2.3638634437443641e-07  4.9350297763137044e-07  7.4767590130383685e-07  9.4712969070045614e-07  6.1905466524666606e-07  -2.4817593953480356e-07  -1.2817624354533985e-06  2.0146733618322134e-05  2.1122197032498697e-05  2.1843329653067231e-05  2.1932196182098757e-05  2.1395171328072105e-05  2.0702959523750415e-05  1.9912658831608347e-05  1.9111029763959693e-05  1.8339145246130202e-05  1.7613304790965662e-05  1.6934458933789528e-05  1.6296667363643651e-05  1.5691859294025569e-05  1.5112248885371785e-05  1.4551160060295620e-05  1.4003087140414575e-05  1.3463416740962428e-05  1.2928022108216153e-05  1.2392817597504731e-05  1.1853331515325757e-05  1.1304381245853316e-05  1.0739977410277436e-05  1.0153605757080719e-05  9.5389820062966519e-06  8.8912106144776269e-06  8.2080558264193811e-06  7.4908962991353423e-06  6.7450196556541259e-06  5.9791909069564706e-06  5.2047145417397550e-06  4.4343375252720870e-06  3.6812916319356187e-06  2.9586395447431268e-06  2.2789622108177481e-06  1.6543460336185289e-06  1.0965937797625696e-06  6.1756008034883342e-07  2.2947395740150077e-07  -5.5036631200594240e-08  -2.2364940891922931e-07  -2.6677377259004217e-07  -1.8207530078537159e-07  1.6396291766191865e-08  2.9010202341839893e-07  5.5316630217462008e-07  7.5127153816302483e-07  4.1229368471941199e-07  -4.6514556166538885e-07  -1.5027563767426213e-06  2.0329685993032210e-05  2.1307721162201948e-05  2.2029994936746467e-05  2.2115683205737461e-05  2.1566269808868549e-05  2.0854491952570966e-05  2.0039088854130138e-05  1.9210590477215962e-05  1.8412781295019592e-05  1.7664288863732778e-05  1.6967115678817208e-05  1.6315598451694784e-05  1.5701381162132209e-05  1.5116110825944439e-05  1.4552457213154034e-05  1.4004301538405658e-05  1.3466516376744369e-05  1.2934556230697134e-05  1.2403945213075864e-05  1.1869717685360911e-05  1.1325913184076412e-05  1.0765307274366029e-05  1.0179642535036589e-05  9.5605905461380594e-06  8.9014177740414338e-06  8.1989009245929391e-06  7.4547291276419504e-06  6.6757885325829891e-06  5.8732870143862359e-06  5.0612016572537358e-06  4.2546724766742406e-06  3.4687728984208977e-06  2.7178089410742837e-06  2.0151022738792834e-06  1.3731283020924426e-06  8.0386890355874232e-07  3.1924154702350039e-07  -6.8554862856070388e-08  -3.4707437013993113e-07  -5.0447054347948627e-07  -5.3212917332303656e-07  -4.2939579600954528e-07  -2.1280023188702517e-07  7.6110432933689225e-08  3.4857851510053395e-07  5.4916794809998457e-07  2.0667541437078532e-07  -6.7341157525789563e-07  -1.7109504905438858e-06  2.0530024029557669e-05  2.1509287478355615e-05  2.2229868538553652e-05  2.2309199032697380e-05  2.1746106358940574e-05  2.1015544278121496e-05  2.0177488758152616e-05  1.9324979613480835e-05  1.8503959423324914e-05  1.7734870700672369e-05  1.7020676692983559e-05  1.6356086939619861e-05  1.5732625231501200e-05  1.5141534077512280e-05  1.4574954363902282e-05  1.4026236843364153e-05  1.3489797962545266e-05  1.2960732300472694e-05  1.2434256277122616e-05  1.1905009348794124e-05  1.1366309803799933e-05  1.0809586029653984e-05  1.0224428566517468e-05  9.5997670406768181e-06  8.9263108375954216e-06  8.1995578949464816e-06  7.4219339583878807e-06  6.6029372879722034e-06  5.7573787856611310e-06  4.9027960609768945e-06  4.0571532852882527e-06  3.2373762982191265e-06  2.4587455705099619e-06  1.7349190919281957e-06  1.0783218661893058e-06  5.0069170104189128e-07  1.3618068217873886e-08  -3.7108744068454566e-07  -6.4147722625610453e-07  -7.8642477755198193e-07  -7.9839587142669518e-07  -6.7828069614158854e-07  -4.4461572522203372e-07  -1.4114649740878214e-07  1.4145898984348519e-07  3.4718656303547914e-07  5.4545663583710957e-09  -8.7359301930769803e-07  -1.9094632862401119e-06  2.0734737533751711e-05  2.1714608576873688e-05  2.2432372054224057e-05  2.2504186041621466e-05  2.1927474426630484e-05  2.1179529454659756e-05  2.0321341834060180e-05  1.9447841017085982e-05  1.8606650239549380e-05  1.7819604653782257e-05  1.7090492954350104e-05  1.6414393370980614e-05  1.5782790434273087e-05  1.5186625847063003e-05  1.4617598907079823e-05  1.4068585391439258e-05  1.3533580992102761e-05  1.3007360582450386e-05  1.2484923375818379e-05  1.1960669820626908e-05  1.1427372770968120e-05  1.0875109077650673e-05  1.0290863286595755e-05  9.6598071352017603e-06  8.9689204750327256e-06  8.2119674690089988e-06  7.3929152433861686e-06  6.5255765833757668e-06  5.6300625377595392e-06  4.7284970986657848e-06  3.8419023380540443e-06  2.9887266758852021e-06  2.1846299091390855e-06  1.4429651055716697e-06  7.7553300317383233e-07  1.9335687539707557e-07  -2.9267293160972050e-07  -6.7141830659620718e-07  -9.3163576449948202e-07  -1.0630275218272073e-06  -1.0591114510257133e-06  -9.2210954845958011e-07  -6.7213825127066752e-07  -3.5456099464830517e-07  -6.1382574263709789e-08  1.5098248316184343e-07  -1.8771633251699193e-07  -1.0640421150758093e-06  -2.0977078973792179e-06  2.0933086686806717e-05  2.1913300412871722e-05  2.2627986303842478e-05  2.2692299344096357e-05  2.2102964991333117e-05  2.1339555990317876e-05  2.0463953018058387e-05  1.9572607599412496e-05  1.8714458292370424e-05  1.7912429591197560e-05  1.7170996806897908e-05  1.6485566118907180e-05  1.5847622729735466e-05  1.5247875948841783e-05  1.4677643247765928e-05  1.4129354273082168e-05  1.3596582664839676e-05  1.3073770206991855e-05  1.2555751476570052e-05  1.2036859354277594e-05  1.1509653879128090e-05  1.0963069819697295e-05  1.0381086372089722e-05  9.7436122299241142e-06  9.0318644350663326e-06  8.2371370124727540e-06  7.3665295285624172e-06  6.4410931486627924e-06  5.4886386056619923e-06  4.5368165959842375e-06  3.6094084601171145e-06  2.7254790281066526e-06  1.9000595308198476e-06  1.1453420165556780e-06  4.7186797336358239e-07  -1.1048858071920775e-07  -5.9181822709954431e-07  -9.6182642201452764e-07  -1.2100537859555006e-06  -1.3270208508654197e-06  -1.3071799032829204e-06  -1.1538427073935153e-06  -8.8834229209477296e-07  -5.5724103010679085e-07  -2.5351895433605283e-07  -3.3926539066550987e-08  -3.6854859120806827e-07  -1.2415012578236943e-06  -2.2728773427426226e-06  2.1115970875835615e-05  2.2096438758805580e-05  2.2808247282714778e-05  2.2865748368081859e-05  2.2265366069636651e-05  2.1488766067897684e-05  2.0598612859203034e-05  1.9692612612196540e-05  1.8820750661296668e-05  1.8006822445871996e-05  1.7255870648638166e-05  1.6563591661812253e-05  1.5921503033325107e-05  1.5320143681288806e-05  1.4750508181808474e-05  1.4204606829772453e-05  1.3675564785159826e-05  1.3157410772317275e-05  1.2644772815416199e-05  1.2132000981092833e-05  1.1611931079691100e-05  1.1072914758375379e-05  1.0495921997777307e-05  9.8533569762991290e-06  9.1169715472633200e-06  8.2744510448912684e-06  7.3392816998712699e-06  6.3447657562355638e-06  5.3294775966468952e-06  4.3268104258511350e-06  3.3619074033025998e-06  2.4527331909461643e-06  1.6122956649010475e-06  8.5069444483028788e-07  1.7666776007506859e-07  -4.0133869631801307e-07  -8.7451187435239909e-07  -1.2334172109523465e-06  -1.4683281074919309e-06  -1.5704713772747956e-06  -1.5350547784437250e-06  -1.3662298089245486e-06  -1.0862361234988725e-06  -7.4251682743072667e-07  -4.2877064775116995e-07  -2.0203738787158941e-07  -5.3229946414627807e-07  -1.4017920487217371e-06  -2.4310046344296445e-06  2.1275648172456645e-05  2.2256366224782540e-05  2.2965747641394342e-05  2.3017503930867267e-05  2.2407972703486853e-05  2.1620641358610643e-05  2.0718842271764294e-05  1.9801310311889712e-05  1.8918868775569433e-05  1.8096016650062267e-05  1.7338270195545126e-05  1.6641593723358559e-05  1.5997577365611957e-05  1.5396667560181612e-05  1.4829624570285782e-05  1.4288106146400910e-05  1.3764787846959610e-05  1.3253187680816426e-05  1.2747557734868132e-05  1.2242110390084002e-05  1.1730441395489767e-05  1.1201262403701432e-05  1.0633837427310610e-05  9.9896804520199206e-06  9.2243223361411145e-06  8.3204401838514373e-06  7.3044271786750760e-06  6.2300432962973839e-06  5.1496027553326567e-06  4.1003841158282540e-06  3.1057270655155830e-06  2.1799888024058204e-06  1.3326802021615740e-06  5.7111870921070995e-07  -9.7988170457779616e-08  -6.6761746881784548e-07  -1.1299443348745209e-06  -1.4762456963503101e-06  -1.6973605168779212e-06  -1.7850360320329319e-06  -1.7350229559861512e-06  -1.5520693880032690e-06  -1.2590557313731764e-06  -9.0405157394794585e-07  -5.8127260808064728e-07  -3.4799439210567062e-07  -6.7410576781878301e-07  -1.5403902746515129e-06  -2.5676851061776448e-06  2.1405660405963869e-05  2.2386659565676505e-05  2.3094194830054311e-05  2.3141474758834067e-05  2.2524848003094922e-05  2.1729296266193976e-05  2.0818688753490892e-05  1.9892576688881136e-05  1.9002440229528970e-05  1.8173339206119360e-05  1.7411184222524435e-05  1.6712192351552118e-05  1.6068071765019152e-05  1.5469270964280090e-05  1.4906444781611767e-05  1.4371037469008870e-05  1.3855375666224211e-05  1.3352478781990074e-05  1.2856016427975908e-05  1.2359651320686485e-05  1.1857735792737076e-05  1.1340253695332574e-05  1.0788959564459628e-05  1.0149265411141094e-05  9.3496679265258062e-06  8.3670596040168919e-06  7.2521097810217952e-06  6.0911295171412642e-06  4.9508570328925181e-06  3.8665126337066158e-06  2.8545846157655809e-06  1.9232700537256027e-06  1.0777519904877900e-06  3.2256091713817107e-07  -3.3733388235251819e-07  -8.9598248623196566e-07  -1.3462284201155218e-06  -1.6797879268224428e-06  -1.8878311759702924e-06  -1.9624111207993227e-06  -1.8996094210099092e-06  -1.7045523906398885e-06  -1.4005382622040516e-06  -1.0360564374512038e-06  -7.0567383562528558e-07  -4.6684302800322904e-07  -7.8935163243931735e-07  -1.6529033079636500e-06  -2.6786068205318527e-06  2.1500865274987753e-05  2.2482185064071126e-05  2.3188516178324627e-05  2.3232684124289330e-05  2.2611065078444584e-05  2.1809767284219350e-05  2.0893051237398616e-05  1.9961070836386132e-05  1.9065787992133548e-05  1.8232683938259892e-05  1.7467979840246677e-05  1.6768116912334119e-05  1.6124948398002788e-05  1.5529005427185394e-05  1.4970971096586159e-05  1.4442260270502868e-05  1.3935075516922772e-05  1.3442177684370558e-05  1.2956713240704342e-05  1.2471567957750488e-05  1.1980819249759134e-05  1.1475450285437857e-05  1.0947036680190602e-05  1.0317749427347423e-05  9.4786213533071952e-06  8.4018442769735516e-06  7.1745663513637959e-06  5.9311036592560865e-06  4.7480957387731131e-06  3.6471206334915256e-06  2.6327472442107707e-06  1.7062216415199943e-06  8.6909297074190217e-07  1.2403607285821249e-07  -5.2493552602331475e-07  -1.0723686843986124e-06  -1.5113675888006251e-06  -1.8337960117882677e-06  -2.0309336909513496e-06  -2.0949530882309574e-06  -2.0220924747270830e-06  -1.8176817670783421e-06  -1.5052607143805349e-06  -1.1335738111442239e-06  -7.9740379637927762e-07  -5.5432411107633105e-07  -8.7401927238543731e-07  -1.7354679491626848e-06  -2.7599650200405132e-06  2.1557513764975550e-05  2.2539190719339775e-05  2.3244983250703306e-05  2.3287441639624525e-05  2.2662930117391582e-05  2.1858286738872097e-05  2.0938005744774511e-05  2.0002622156285426e-05  1.9104398672688231e-05  1.8269087743496406e-05  1.7503117111668709e-05  1.6803090275435180e-05  1.6160985039640060e-05  1.5567434557770941e-05  1.5013213248434258e-05  1.4489824624358918e-05  1.3989550769695950e-05  1.3505213266536132e-05  1.3029840755741111e-05  1.2555993164040711e-05  1.2076443955462022e-05  1.1582273826594153e-05  1.1078768051591807e-05  1.0457321428220423e-05  9.5807536876074243e-06  8.4186918966981210e-06  7.0838047191431008e-06  5.7786670485862427e-06  4.5798108120971958e-06  3.4811042951124627e-06  2.4747930300399282e-06  1.5579160709058340e-06  7.3058089459795506e-07  -5.0066936782866046e-09  -6.4496441140832021e-07  -1.1838518155264623e-06  -1.6147453305229046e-06  -1.9294749700624953e-06  -2.1193014613650207e-06  -2.1764072426009299e-06  -2.0970769426292025e-06  -1.8867242285849790e-06  -1.5690009920600495e-06  -1.1927794674703980e-06  -8.5294932156515605e-07  -6.0715649926119166e-07  -9.2499454111808659e-07  -1.7850735903594606e-06  -2.8087885410435654e-06  2.1573332267951913e-05  2.2555398504370605e-05  2.3261326109941737e-05  2.3303489842069457e-05  2.2678167834247126e-05  2.1872513517587726e-05  2.0951089804018740e-05  2.0014583989940900e-05  1.9115370736944571e-05  1.8279310368248946e-05  1.7512911166692296e-05  1.6812841678734204e-05  1.6171130229220804e-05  1.5578452961777152e-05  1.5025625547950598e-05  1.4504197916038654e-05  1.4006510664430780e-05  1.3525461670834991e-05  1.3054107459904935e-05  1.2585105415626314e-05  1.2110556733738095e-05  1.1622442920019046e-05  1.1132026473653796e-05  1.0519898845595897e-05  9.6214239849747923e-06  8.4292249171781981e-06  7.0447189359015838e-06  5.7051867094835643e-06  4.5090272236530672e-06  3.4168639161648862e-06  2.4166832994742383e-06  1.5050674200727595e-06  6.8231569458981168e-07  -4.9207166585826031e-08  -6.8550317140342592e-07  -1.2210529763033104e-06  -1.6488781911717653e-06  -1.9607695082006340e-06  -2.1479609596223498e-06  -2.2026211313796270e-06  