<?xml version="1.0"?>
<VTKFile type="UnstructuredGrid"  version="0.1"  >
<UnstructuredGrid>
<Piece  NumberOfPoints="1617" NumberOfCells="3072">
<Points>
<DataArray  type="Float64"  NumberOfComponents="3"  format="ascii">0 0 0  0.03125 0 0  0.0625 0 0  0.09375 0 0  0.125 0 0  0.15625 0 0  0.1875 0 0  0.21875 0 0  0.25 0 0  0.28125 0 0  0.3125 0 0  0.34375 0 0  0.375 0 0  0.40625 0 0  0.4375 0 0  0.46875 0 0  0.5 0 0  0.53125 0 0  0.5625 0 0  0.59375 0 0  0.625 0 0  0.65625 0 0  0.6875 0 0  0.71875 0 0  0.75 0 0  0.78125 0 0  0.8125 0 0  0.84375 0 0  0.875 0 0  0.90625 0 0  0.9375 0 0  0.96875 0 0  1 0 0  1.03125 0 0  1.0625 0 0  1.09375 0 0  1.125 0 0  1.15625 0 0  1.1875 0 0  1.21875 0 0  1.25 0 0  1.28125 0 0  1.3125 0 0  1.34375 0 0  1.375 0 0  1.40625 0 0  1.4375 0 0  1.46875 0 0  1.5 0 0  0 0.03125 0  0.03125 0.03125 0  0.0625 0.03125 0  0.09375 0.03125 0  0.125 0.03125 0  0.15625 0.03125 0  0.1875 0.03125 0  0.21875 0.03125 0  0.25 0.03125 0  0.28125 0.03125 0  0.3125 0.03125 0  0.34375 0.03125 0  0.375 0.03125 0  0.40625 0.03125 0  0.4375 0.03125 0  0.46875 0.03125 0  0.5 0.03125 0  0.53125 0.03125 0  0.5625 0.03125 0  0.59375 0.03125 0  0.625 0.03125 0  0.65625 0.03125 0  0.6875 0.03125 0  0.71875 0.03125 0  0.75 0.03125 0  0.78125 0.03125 0  0.8125 0.03125 0  0.84375 0.03125 0  0.875 0.03125 0  0.90625 0.03125 0  0.9375 0.03125 0  0.96875 0.03125 0  1 0.03125 0  1.03125 0.03125 0  1.0625 0.03125 0  1.09375 0.03125 0  1.125 0.03125 0  1.15625 0.03125 0  1.1875 0.03125 0  1.21875 0.03125 0  1.25 0.03125 0  1.28125 0.03125 0  1.3125 0.03125 0  1.34375 0.03125 0  1.375 0.03125 0  1.40625 0.03125 0  1.4375 0.03125 0  1.46875 0.03125 0  1.5 0.03125 0  0 0.0625 0  0.03125 0.0625 0  0.0625 0.0625 0  0.09375 0.0625 0  0.125 0.0625 0  0.15625 0.0625 0  0.1875 0.0625 0  0.21875 0.0625 0  0.25 0.0625 0  0.28125 0.0625 0  0.3125 0.0625 0  0.34375 0.0625 0  0.375 0.0625 0  0.40625 0.0625 0  0.4375 0.0625 0  0.46875 0.0625 0  0.5 0.0625 0  0.53125 0.0625 0  0.5625 0.0625 0  0.59375 0.0625 0  0.625 0.0625 0  0.65625 0.0625 0  0.6875 0.0625 0  0.71875 0.0625 0  0.75 0.0625 0  0.78125 0.0625 0  0.8125 0.0625 0  0.84375 0.0625 0  0.875 0.0625 0  0.90625 0.0625 0  0.9375 0.0625 0  0.96875 0.0625 0  1 0.0625 0  1.03125 0.0625 0  1.0625 0.0625 0  1.09375 0.0625 0  1.125 0.0625 0  1.15625 0.0625 0  1.1875 0.0625 0  1.21875 0.0625 0  1.25 0.0625 0  1.28125 0.0625 0  1.3125 0.0625 0  1.34375 0.0625 0  1.375 0.0625 0  1.40625 0.0625 0  1.4375 0.0625 0  1.46875 0.0625 0  1.5 0.0625 0  0 0.09375 0  0.03125 0.09375 0  0.0625 0.09375 0  0.09375 0.09375 0  0.125 0.09375 0  0.15625 0.09375 0  0.1875 0.09375 0  0.21875 0.09375 0  0.25 0.09375 0  0.28125 0.09375 0  0.3125 0.09375 0  0.34375 0.09375 0  0.375 0.09375 0  0.40625 0.09375 0  0.4375 0.09375 0  0.46875 0.09375 0  0.5 0.09375 0  0.53125 0.09375 0  0.5625 0.09375 0  0.59375 0.09375 0  0.625 0.09375 0  0.65625 0.09375 0  0.6875 0.09375 0  0.71875 0.09375 0  0.75 0.09375 0  0.78125 0.09375 0  0.8125 0.09375 0  0.84375 0.09375 0  0.875 0.09375 0  0.90625 0.09375 0  0.9375 0.09375 0  0.96875 0.09375 0  1 0.09375 0  1.03125 0.09375 0  1.0625 0.09375 0  1.09375 0.09375 0  1.125 0.09375 0  1.15625 0.09375 0  1.1875 0.09375 0  1.21875 0.09375 0  1.25 0.09375 0  1.28125 0.09375 0  1.3125 0.09375 0  1.34375 0.09375 0  1.375 0.09375 0  1.40625 0.09375 0  1.4375 0.09375 0  1.46875 0.09375 0  1.5 0.09375 0  0 0.125 0  0.03125 0.125 0  0.0625 0.125 0  0.09375 0.125 0  0.125 0.125 0  0.15625 0.125 0  0.1875 0.125 0  0.21875 0.125 0  0.25 0.125 0  0.28125 0.125 0  0.3125 0.125 0  0.34375 0.125 0  0.375 0.125 0  0.40625 0.125 0  0.4375 0.125 0  0.46875 0.125 0  0.5 0.125 0  0.53125 0.125 0  0.5625 0.125 0  0.59375 0.125 0  0.625 0.125 0  0.65625 0.125 0  0.6875 0.125 0  0.71875 0.125 0  0.75 0.125 0  0.78125 0.125 0  0.8125 0.125 0  0.84375 0.125 0  0.875 0.125 0  0.90625 0.125 0  0.9375 0.125 0  0.96875 0.125 0  1 0.125 0  1.03125 0.125 0  1.0625 0.125 0  1.09375 0.125 0  1.125 0.125 0  1.15625 0.125 0  1.1875 0.125 0  1.21875 0.125 0  1.25 0.125 0  1.28125 0.125 0  1.3125 0.125 0  1.34375 0.125 0  1.375 0.125 0  1.40625 0.125 0  1.4375 0.125 0  1.46875 0.125 0  1.5 0.125 0  0 0.15625 0  0.03125 0.15625 0  0.0625 0.15625 0  0.09375 0.15625 0  0.125 0.15625 0  0.15625 0.15625 0  0.1875 0.15625 0  0.21875 0.15625 0  0.25 0.15625 0  0.28125 0.15625 0  0.3125 0.15625 0  0.34375 0.15625 0  0.375 0.15625 0  0.40625 0.15625 0  0.4375 0.15625 0  0.46875 0.15625 0  0.5 0.15625 0  0.53125 0.15625 0  0.5625 0.15625 0  0.59375 0.15625 0  0.625 0.15625 0  0.65625 0.15625 0  0.6875 0.15625 0  0.71875 0.15625 0  0.75 0.15625 0  0.78125 0.15625 0  0.8125 0.15625 0  0.84375 0.15625 0  0.875 0.15625 0  0.90625 0.15625 0  0.9375 0.15625 0  0.96875 0.15625 0  1 0.15625 0  1.03125 0.15625 0  1.0625 0.15625 0  1.09375 0.15625 0  1.125 0.15625 0  1.15625 0.15625 0  1.1875 0.15625 0  1.21875 0.15625 0  1.25 0.15625 0  1.28125 0.15625 0  1.3125 0.15625 0  1.34375 0.15625 0  1.375 0.15625 0  1.40625 0.15625 0  1.4375 0.15625 0  1.46875 0.15625 0  1.5 0.15625 0  0 0.1875 0  0.03125 0.1875 0  0.0625 0.1875 0  0.09375 0.1875 0  0.125 0.1875 0  0.15625 0.1875 0  0.1875 0.1875 0  0.21875 0.1875 0  0.25 0.1875 0  0.28125 0.1875 0  0.3125 0.1875 0  0.34375 0.1875 0  0.375 0.1875 0  0.40625 0.1875 0  0.4375 0.1875 0  0.46875 0.1875 0  0.5 0.1875 0  0.53125 0.1875 0  0.5625 0.1875 0  0.59375 0.1875 0  0.625 0.1875 0  0.65625 0.1875 0  0.6875 0.1875 0  0.71875 0.1875 0  0.75 0.1875 0  0.78125 0.1875 0  0.8125 0.1875 0  0.84375 0.1875 0  0.875 0.1875 0  0.90625 0.1875 0  0.9375 0.1875 0  0.96875 0.1875 0  1 0.1875 0  1.03125 0.1875 0  1.0625 0.1875 0  1.09375 0.1875 0  1.125 0.1875 0  1.15625 0.1875 0  1.1875 0.1875 0  1.21875 0.1875 0  1.25 0.1875 0  1.28125 0.1875 0  1.3125 0.1875 0  1.34375 0.1875 0  1.375 0.1875 0  1.40625 0.1875 0  1.4375 0.1875 0  1.46875 0.1875 0  1.5 0.1875 0  0 0.21875 0  0.03125 0.21875 0  0.0625 0.21875 0  0.09375 0.21875 0  0.125 0.21875 0  0.15625 0.21875 0  0.1875 0.21875 0  0.21875 0.21875 0  0.25 0.21875 0  0.28125 0.21875 0  0.3125 0.21875 0  0.34375 0.21875 0  0.375 0.21875 0  0.40625 0.21875 0  0.4375 0.21875 0  0.46875 0.21875 0  0.5 0.21875 0  0.53125 0.21875 0  0.5625 0.21875 0  0.59375 0.21875 0  0.625 0.21875 0  0.65625 0.21875 0  0.6875 0.21875 0  0.71875 0.21875 0  0.75 0.21875 0  0.78125 0.21875 0  0.8125 0.21875 0  0.84375 0.21875 0  0.875 0.21875 0  0.90625 0.21875 0  0.9375 0.21875 0  0.96875 0.21875 0  1 0.21875 0  1.03125 0.21875 0  1.0625 0.21875 0  1.09375 0.21875 0  1.125 0.21875 0  1.15625 0.21875 0  1.1875 0.21875 0  1.21875 0.21875 0  1.25 0.21875 0  1.28125 0.21875 0  1.3125 0.21875 0  1.34375 0.21875 0  1.375 0.21875 0  1.40625 0.21875 0  1.4375 0.21875 0  1.46875 0.21875 0  1.5 0.21875 0  0 0.25 0  0.03125 0.25 0  0.0625 0.25 0  0.09375 0.25 0  0.125 0.25 0  0.15625 0.25 0  0.1875 0.25 0  0.21875 0.25 0  0.25 0.25 0  0.28125 0.25 0  0.3125 0.25 0  0.34375 0.25 0  0.375 0.25 0  0.40625 0.25 0  0.4375 0.25 0  0.46875 0.25 0  0.5 0.25 0  0.53125 0.25 0  0.5625 0.25 0  0.59375 0.25 0  0.625 0.25 0  0.65625 0.25 0  0.6875 0.25 0  0.71875 0.25 0  0.75 0.25 0  0.78125 0.25 0  0.8125 0.25 0  0.84375 0.25 0  0.875 0.25 0  0.90625 0.25 0  0.9375 0.25 0  0.96875 0.25 0  1 0.25 0  1.03125 0.25 0  1.0625 0.25 0  1.09375 0.25 0  1.125 0.25 0  1.15625 0.25 0  1.1875 0.25 0  1.21875 0.25 0  1.25 0.25 0  1.28125 0.25 0  1.3125 0.25 0  1.34375 0.25 0  1.375 0.25 0  1.40625 0.25 0  1.4375 0.25 0  1.46875 0.25 0  1.5 0.25 0  0 0.28125 0  0.03125 0.28125 0  0.0625 0.28125 0  0.09375 0.28125 0  0.125 0.28125 0  0.15625 0.28125 0  0.1875 0.28125 0  0.21875 0.28125 0  0.25 0.28125 0  0.28125 0.28125 0  0.3125 0.28125 0  0.34375 0.28125 0  0.375 0.28125 0  0.40625 0.28125 0  0.4375 0.28125 0  0.46875 0.28125 0  0.5 0.28125 0  0.53125 0.28125 0  0.5625 0.28125 0  0.59375 0.28125 0  0.625 0.28125 0  0.65625 0.28125 0  0.6875 0.28125 0  0.71875 0.28125 0  0.75 0.28125 0  0.78125 0.28125 0  0.8125 0.28125 0  0.84375 0.28125 0  0.875 0.28125 0  0.90625 0.28125 0  0.9375 0.28125 0  0.96875 0.28125 0  1 0.28125 0  1.03125 0.28125 0  1.0625 0.28125 0  1.09375 0.28125 0  1.125 0.28125 0  1.15625 0.28125 0  1.1875 0.28125 0  1.21875 0.28125 0  1.25 0.28125 0  1.28125 0.28125 0  1.3125 0.28125 0  1.34375 0.28125 0  1.375 0.28125 0  1.40625 0.28125 0  1.4375 0.28125 0  1.46875 0.28125 0  1.5 0.28125 0  0 0.3125 0  0.03125 0.3125 0  0.0625 0.3125 0  0.09375 0.3125 0  0.125 0.3125 0  0.15625 0.3125 0  0.1875 0.3125 0  0.21875 0.3125 0  0.25 0.3125 0  0.28125 0.3125 0  0.3125 0.3125 0  0.34375 0.3125 0  0.375 0.3125 0  0.40625 0.3125 0  0.4375 0.3125 0  0.46875 0.3125 0  0.5 0.3125 0  0.53125 0.3125 0  0.5625 0.3125 0  0.59375 0.3125 0  0.625 0.3125 0  0.65625 0.3125 0  0.6875 0.3125 0  0.71875 0.3125 0  0.75 0.3125 0  0.78125 0.3125 0  0.8125 0.3125 0  0.84375 0.3125 0  0.875 0.3125 0  0.90625 0.3125 0  0.9375 0.3125 0  0.96875 0.3125 0  1 0.3125 0  1.03125 0.3125 0  1.0625 0.3125 0  1.09375 0.3125 0  1.125 0.3125 0  1.15625 0.3125 0  1.1875 0.3125 0  1.21875 0.3125 0  1.25 0.3125 0  1.28125 0.3125 0  1.3125 0.3125 0  1.34375 0.3125 0  1.375 0.3125 0  1.40625 0.3125 0  1.4375 0.3125 0  1.46875 0.3125 0  1.5 0.3125 0  0 0.34375 0  0.03125 0.34375 0  0.0625 0.34375 0  0.09375 0.34375 0  0.125 0.34375 0  0.15625 0.34375 0  0.1875 0.34375 0  0.21875 0.34375 0  0.25 0.34375 0  0.28125 0.34375 0  0.3125 0.34375 0  0.34375 0.34375 0  0.375 0.34375 0  0.40625 0.34375 0  0.4375 0.34375 0  0.46875 0.34375 0  0.5 0.34375 0  0.53125 0.34375 0  0.5625 0.34375 0  0.59375 0.34375 0  0.625 0.34375 0  0.65625 0.34375 0  0.6875 0.34375 0  0.71875 0.34375 0  0.75 0.34375 0  0.78125 0.34375 0  0.8125 0.34375 0  0.84375 0.34375 0  0.875 0.34375 0  0.90625 0.34375 0  0.9375 0.34375 0  0.96875 0.34375 0  1 0.34375 0  1.03125 0.34375 0  1.0625 0.34375 0  1.09375 0.34375 0  1.125 0.34375 0  1.15625 0.34375 0  1.1875 0.34375 0  1.21875 0.34375 0  1.25 0.34375 0  1.28125 0.34375 0  1.3125 0.34375 0  1.34375 0.34375 0  1.375 0.34375 0  1
[...]
<PointData  Scalars="f_33"> 
<DataArray  type="Float64"  Name="f_33"  format="ascii">2.1614759871433462e-05  1.9108361535124498e-05  1.6920097250451037e-05  1.4827584461917930e-05  1.2840129244894723e-05  1.0951572796858788e-05  9.1618065916649098e-06  7.4725126317395993e-06  5.8849309496183143e-06  4.3992593702850369e-06  3.0146226054198891e-06  1.7293008106070980e-06  5.4102212346893309e-07  -5.5278509471056255e-07  -1.5548092872662289e-06  -2.4677354123386211e-06  -3.2941685211047291e-06  -4.0365831929673155e-06  -4.6972851801103895e-06  -5.2783757400348061e-06  -5.7817122210495449e-06  -6.2088611235133643e-06  -6.5610427976585076e-06  -6.8390703837740891e-06  -7.0432890662559987e-06  -7.1735241295521653e-06  -7.2290465677882148e-06  -7.2085627316334158e-06  -7.1102304097923602e-06  -6.9316992891090948e-06  -6.6701702900529672e-06  -6.3224666006256058e-06  -5.8851093376360295e-06  -5.3543924765711274e-06  -4.7264542957120281e-06  -3.9973477541240362e-06  -3.1631162442391685e-06  -2.2198983460428567e-06  -1.1640778016099840e-06  7.4486330627427429e-09  1.2969187749375559e-06  2.7051986477920603e-06  4.2310905827073750e-06  5.8721035487607201e-06  7.6200828793470619e-06  9.4811005582495320e-06  1.1438596946242132e-05  1.3525916510053909e-05  1.5290703489420998e-05  2.2440400371168929e-05  1.9311369702789875e-05  1.6934737433941010e-05  1.4802023605367621e-05  1.2803510836073336e-05  1.0910466655845240e-05  9.1174711702216717e-06  7.4259326255654915e-06  5.8369887704905421e-06  4.3506899066890597e-06  2.9659586423292372e-06  1.6808844775243096e-06  4.9304606544259071e-07  -6.0023080156525242e-07  -1.6016986647830954e-06  -2.5140805846441729e-06  -3.3400049455842721e-06  -4.0819632200088016e-06  -4.7422772359168251e-06  -5.3230670261836388e-06  -5.8262131438912541e-06  -6.2533096281170952e-06  -6.6056066396356914e-06  -6.8839455036922689e-06  -7.0886929241063117e-06  -7.2196841033257368e-06  -7.2761849329290553e-06  -7.2568807378159788e-06  -7.1598941561539773e-06  -6.9828294748428667e-06  -6.7228368151909607e-06  -6.3766878267561683e-06  -5.9408548406553949e-06  -5.4115874355200844e-06  -4.7849830115529442e-06  -4.0570530226368677e-06  -3.2237901504290048e-06  -2.2812572009972104e-06  -1.2257169088644095e-06  -5.3858510928924386e-08  1.2368556500098703e-06  2.6478054245963159e-06  4.1783948277901628e-06  5.8271699513482286e-06  7.5885806177854223e-06  9.4652085761269730e-06  1.1488494356415784e-05  1.3601316247222293e-05  1.6194948461647242e-05  2.3272550678303728e-05  1.9776370168588482e-05  1.7120241801168869e-05  1.4810483930981627e-05  1.2731167925443679e-05  1.0798974767487819e-05  8.9850841683862664e-06  7.2827557989681272e-06  5.6888431337270526e-06  4.2011598170732403e-06  2.8172717215783561e-06  1.5344003560347742e-06  3.4955084763890351e-07  -7.4033051293599922e-07  -1.7382475561519980e-06  -2.6470918109776363e-06  -3.4696092055195853e-06  -4.2083800799722088e-06  -4.8658019996624206e-06  -5.4440682443096283e-06  -5.9451364469279275e-06  -6.3706832383022470e-06  -6.7220433779391269e-06  -7.0001363111472002e-06  -7.2053886449575466e-06  -7.3376655325649981e-06  -7.3962248080466527e-06  -7.3797038047361670e-06  -7.2861416147749191e-06  -7.1130322035126967e-06  -6.8573988406760320e-06  -6.5158786457293531e-06  -6.0848070077921870e-06  -5.5602943757972693e-06  -4.9382908287004386e-06  -4.2146388616506531e-06  -3.3851170196978222e-06  -2.4454929479798423e-06  -1.3915966118577757e-06  -2.1946795900091151e-07  1.0744256412173332e-06  2.4930195879167002e-06  4.0381679723031277e-06  5.7128897601661837e-06  7.5190404868499078e-06  9.4759591380595195e-06  1.1654754024992810e-05  1.4016389452310517e-05  1.7183993451024818e-05  2.4029872439565209e-05  2.0379779410542795e-05  1.7501867972635369e-05  1.4961577789774287e-05  1.2738230494512027e-05  1.0717885828702997e-05  8.8495135737481323e-06  7.1142325392647579e-06  5.5007739805286544e-06  4.0022214133635229e-06  2.6131436991244391e-06  1.3288102621476097e-06  1.4491824483296859e-07  -9.4247496164916287e-07  -1.9369845854816167e-06  -2.8419287176658210e-06  -3.6603582905792475e-06  -4.3950814453832892e-06  -5.0486782920751819e-06  -5.6235024787092871e-06  -6.1216651879672814e-06  -6.5449967850710285e-06  -6.8949833792802705e-06  -7.1726811911096332e-06  -7.3786200551209457e-06  -7.5127150524885848e-06  -7.5742071472620415e-06  -7.5616473383406980e-06  -7.4729270615897474e-06  -7.3053462572037840e-06  -7.0557039548665526e-06  -6.7203951317089381e-06  -6.2955001103780332e-06  -5.7768569553306541e-06  -5.1601109141943436e-06  -4.4407396996845447e-06  -3.6140543440190678e-06  -2.6751887700207946e-06  -1.6190804564621928e-06  -4.4047820979309781e-07  8.6605087808117610e-07  2.3063085143299922e-06  3.8865488980279903e-06  5.6167868249966721e-06  7.5100271241295670e-06  9.6028700766511933e-06  1.1990082433819382e-05  1.4635793770254776e-05  1.8080467784820712e-05  2.4756432258136438e-05  2.1030999252499667e-05  1.7975354216314364e-05  1.5231565840945704e-05  1.2844178738472341e-05  1.0703855534251977e-05  8.7520543463286698e-06  6.9605717856458037e-06  5.3098722554568595e-06  3.7873918596683350e-06  2.3836826794088451e-06  1.0911925261906074e-06  -9.6375627485949829e-08  -1.1843840792229431e-06  -2.1774655862157302e-06  -3.0796739276537946e-06  -3.8945996147365862e-06  -4.6254571817317327e-06  -5.2751476040785530e-06  -5.8462964041593696e-06  -6.3412640183226639e-06  -6.7621219371194514e-06  -7.1105889563786156e-06  -7.3879291541191577e-06  -7.5948267685194457e-06  -7.7312671207244158e-06  -7.7964570053265765e-06  -7.7888069135648937e-06  -7.7059768127673286e-06  -7.5449689057604610e-06  -7.3022423898799712e-06  -6.9738262621188267e-06  -6.5554120809563067e-06  -6.0424154415043899e-06  -5.4299997018549986e-06  -4.7130599296640489e-06  -3.8861644937602502e-06  -2.9434625085728651e-06  -1.8785508862837118e-06  -6.8432383799805355e-07  6.4724713959894316e-07  2.1256102823251356e-06  3.7621649160279643e-06  5.5739860126913034e-06  7.5832840374562597e-06  9.8364370762640775e-06  1.2430520652974992e-05  1.5306605909080530e-05  1.8903313762880171e-05  2.5446909048660975e-05  2.1674019485024599e-05  1.8485164951323241e-05  1.5574066499346103e-05  1.3029250133070107e-05  1.0758815868754994e-05  8.7072937647180987e-06  6.8425290214694505e-06  5.1393529292235304e-06  3.5803223172215218e-06  2.1519483923262054e-06  8.4355085320599871e-07  -3.5354283422694325e-07  -1.4464870580388641e-06  -2.4412601066585975e-06  -3.3429262089027067e-06  -4.1558382450848505e-06  -4.8837945191359427e-06  -5.5301580857639326e-06  -6.0979422110310467e-06  -6.5898581446956123e-06  -7.0083146701613585e-06  -7.3553572023870656e-06  -7.6325433269341833e-06  -7.8407740705676685e-06  -7.9801268292974626e-06  -8.0497458776649485e-06  -8.0478262645000635e-06  -7.9716889582585249e-06  -7.8179147553223100e-06  -7.5824952278109328e-06  -7.2609660502310908e-06  -6.8485006240006093e-06  -6.3399531496285430e-06  -5.7298466884835378e-06  -5.0123057513338255e-06  -4.1809308432555187e-06  -3.2286212800348605e-06  -2.1473365302962776e-06  -9.2781616999980098e-07  4.4079411359006264e-07  1.9715880084065940e-06  3.6805216380489709e-06  5.5898824842142773e-06  7.7267467403099444e-06  1.0139000685504505e-05  1.2913866595030687e-05  1.5963886770621370e-05  1.9649965540830856e-05  2.6091538220801753e-05  2.2284459740068655e-05  1.8994369683586892e-05  1.5948863954281763e-05  1.3264786493999897e-05  1.0868809704122683e-05  8.7130824060601397e-06  6.7661285369758333e-06  5.0003752306546139e-06  3.3951090302787296e-06  1.9335329911937352e-06  6.0207722729644607e-07  -6.1032766209586536e-07  -1.7127688022267895e-06  -2.7127523359866537e-06  -3.6165377762312170e-06  -4.4294079318652318e-06  -5.1558877206201047e-06  -5.7999207813283846e-06  -6.3650085937554841e-06  -6.8543059390042557e-06  -7.2706547701754668e-06  -7.6165311787588145e-06  -7.8938898383457492e-06  -8.1039272100694811e-06  -8.2468371832490424e-06  -8.3216567068091534e-06  -8.3262608685582982e-06  -8.2574940300224259e-06  -8.1113724611366627e-06  -7.8832887180401107e-06  -7.5681700583347282e-06  -7.1605681102642330e-06  -6.6546743235401768e-06  -6.0442633064300009e-06  -5.3225688173762024e-06  -4.4820932174818339e-06  -3.5143589744166930e-06  -2.4095958016742510e-06  -1.1563923806637411e-06  2.5872002058364821e-07  1.8518690201171132e-06  3.6422449506254197e-06  5.6548795538029090e-06  7.9176974306497486e-06  1.0474745909158160e-05  1.3399367685459233e-05  1.6579705176518336e-05  2.0323723809099179e-05  2.6683064608148721e-05  2.2849825955555148e-05  1.9481497339156517e-05  1.6328347301532273e-05  1.3525707794164784e-05  1.1015820642915768e-05  8.7595159081626043e-06  6.7286541714529970e-06  4.8957318770627600e-06  3.2384434631256298e-06  1.7377413429764525e-06  3.7773827335123452e-07  -8.5477420981021072e-07  -1.9707422043543349e-06  -2.9792271906697989e-06  -3.8877600238697366e-06  -4.7026453658705354e-06  -5.4292240688683249e-06  -6.0720990307240276e-06  -6.6353294817187823e-06  -7.1225840168701144e-06  -7.5372241324796463e-06  -7.8822694434141069e-06  -8.1602005770157439e-06  -8.3726140890948540e-06  -8.5198489954378111e-06  -8.6007628350070074e-06  -8.6127601230925970e-06  -8.5520298917217819e-06  -8.4138619225018473e-06  -8.1929262782626681e-06  -7.8834572335925649e-06  -7.4793277919572847e-06  -6.9740240295703152e-06  -6.3605343331359516e-06  -5.6311674355395821e-06  -4.7773062747493147e-06  -3.7891118292419908e-06  -2.6551787600587397e-06  -1.3621879560428696e-06  1.0544774380944560e-07  1.7659964696649917e-06  3.6404192565921644e-06  5.7543423060479277e-06  8.1338423233011086e-06  1.0816757923187876e-05  1.3862901586991393e-05  1.7142201934446892e-05  2.0926700426657788e-05  2.7216740602025143e-05  2.3362986416863289e-05  1.9933535751118630e-05  1.6694119557290971e-05  1.3792474609742914e-05  1.1182940787829485e-05  8.8344133431231148e-06  6.7231240531620806e-06  4.8231272186946745e-06  3.1118624351648572e-06  1.5690548785795772e-06  1.7717742111241707e-07  -1.0787077525669644e-06  -2.2111838813559762e-06  -3.2307704811444424e-06  -4.1462472528533909e-06  -4.9649576321789310e-06  -5.6930902177849981e-06  -6.3359392327174723e-06  -6.8981506555490278e-06  -7.3839426945364715e-06  -7.7972632725647139e-06  -8.1417967003547992e-06  -8.4207176665715414e-06  -8.6361722043268598e-06  -8.7886800345481866e-06  -8.8767986500701964e-06  -8.8972353697918394e-06  -8.8452871986417157e-06  -8.7153404167414963e-06  -8.5012452137733085e-06  -8.1965116064461070e-06  -7.7943441574298752e-06  -7.2875541293511420e-06  -6.6683837836398602e-06  -5.9282679084579896e-06  -5.0575462768481426e-06  -4.0451473615969369e-06  -2.8782547082912028e-06  -1.5420182350313519e-06  -1.9334023570003235e-08  1.7093075323044705e-06  3.6654027182690028e-06  5.8736871405543582e-06  8.3570076852457366e-06  1.1146548962738766e-05  1.4290605891407303e-05  1.7646243383950868e-05  2.1460577403754093e-05  2.7689608062310947e-05  2.3819631797991745e-05  2.0342234480887018e-05  1.7033782272258443e-05  1.4050554931102748e-05  1.1356044485868859e-05  8.9260009360425022e-06  6.7410946476606538e-06  4.7776387670689353e-06  3.0136976482683599e-06  1.4285752095478987e-06  3.7320840527900416e-09  -1.2770509945884509e-06  -2.4276998560898863e-06  -3.4600150066126660e-06  -4.3839296163381901e-06  -5.2077822476294327e-06  -5.9385916214823541e-06  -6.5823323355510624e-06  -7.1442228015868805e-06  -7.6290214003748560e-06  -8.0412969502443518e-06  -8.3855254675556762e-06  -8.6658068055154705e-06  -8.8850660700269236e-06  -9.0440507098412962e-06  -9.1408075245516950e-06  -9.1709919053138144e-06  -9.1286935260019905e-06  -9.0072188721102928e-06  -8.7995591360904889e-06  -8.4985519000750427e-06  -8.0968290714472726e-06  -7.5866366926064909e-06  -6.9595833159041382e-06  -6.2063500596025511e-06  -5.3163790586400051e-06  -4.2775641342344173e-06  -3.0759625164113173e-06  -1.6956035311444165e-06  -1.1843720639387336e-07  1.6755448579837846e-06  3.7075044592140264e-06  6.0004571635388300e-06  8.5735816038751161e-06  1.1451945440185139e-05  1.4674646985598536e-05  1.8089878744662803e-05  2.1926943885960826e-05  2.8099888828709557e-05  2.4217115875668580e-05  2.0702207439846865e-05  1.7338838960275636e-05  1.4289289485135311e-05  1.1523896317528380e-05  9.0239662349014917e-06  6.7741949715208634e-06  4.7533297429690196e-06  2.9405307044884047e-06  1.3152269375348508e-06  -1.4163117393722941e-07  -1.4471343005298701e-06  -2.6162433598545265e-06  -3.6618248717538317e-06  -4.5948253064916083e-06  -5.4244933530078480e-06  -6.1586259148991335e-06  -6.8038369372497701e-06  -7.3658651543569089e-06  -7.8499462301149942e-06  -8.2612526802091615e-06  -8.6051710963298308e-06  -8.8870576638710330e-06  -9.1109925262344069e-06  -9.2780148434893204e-06  -9.3852798574126557e-06  -9.4268225580707670e-06  -9.3951184984919170e-06  -9.2822652622557968e-06  -9.0804699459560269e-06  -8.7820689708548926e-06  -8.3793148647491965e-06  -7.8640699896241931e-06  -7.2274744227355029e-06  -6.4596169008437412e-06  -5.5492202599678131e-06  -4.4833636940048450e-06  -3.2472642981877865e-06  -1.8242022727984110e-06  -1.9564319466721660e-07  1.6583947648724062e-06  3.7582297533100239e-06  6.1248342035660432e-06  8.7738477734798867e-06  1.1725147107349136e-05  1.5010734420040545e-05  1.8472749423903582e-05  2.2327432672829773e-05  2.8446560669453828e-05  2.4553819398648420e-05  2.1009880523964236e-05  1.7603392026971782e-05  1.4500889734895858e-05  1.1677781951456500e-05  9.1197378061043149e-06  6.8148663863422424e-06  4.7442093094388893e-06  2.8881888585322659e-06  1.2266737094837145e-06  -2.5953988634771514e-07  -1.5880789564420921e-06  -2.7746555655206681e-06  -3.8329789081133903e-06  -4.7748450459239955e-06  -5.6103017400688022e-06  -6.3478528604650562e-06  -6.9946994178746666e-06  -7.5570279572431564e-06  -8.0404379415262535e-06  -8.4506090114147800e-06  -8.7938995654902726e-06  -9.0774077183026160e-06  -9.3070083542146547e-06  -9.4841118123990775e-06  -9.6042832301252169e-06  -9.6590304840257466e-06  -9.6387458033596485e-06  -9.5343437226320123e-06  -9.3375193072201225e-06  -9.0404295757096765e-06  -8.6352304183019901e-06  -8.1136262200546645e-06  -7.4664719200433683e-06  -6.6834299594359562e-06  -5.7526779579385857e-06  -4.6606836074414808e-06  -3.3920700966422213e-06  -1.9296608653691820e-06  -2.5476084516601659e-07  1.6522737136137373e-06  3.8107013481173929e-06  6.2394690918237751e-06  8.9511017933205052e-06  1.1961290567538249e-05  1.5296684370432511e-05  1.8795326074908633e-05  2.2663715801064685e-05  2.8729065552479341e-05  2.4828762277806510e-05  2.1262862759995137e-05  1.7823321012416338e-05  1.4679685758406699e-05  1.1811061244460987e-05  9.2064361109485028e-06  6.8566645383082114e-06  4.7447699932931469e-06  2.8523972588176434e-06  1.1599865517748940e-06  -3.5159888176527268e-07  -1.7002718176936031e-06  -2.9022521524875837e-06  -3.9718764949867694e-06  -4.9216142014600835e-06  -5.7621802954113021e-06  -6.5027000534203855e-06  -7.1509116555203934e-06  -7.7133880822670097e-06  -8.1959640618164668e-06  -8.6046250556310392e-06  -8.9465772503952691e-06  -9.2313713192271142e-06  -9.4677515741283561e-06  -9.6575596556829444e-06  -9.7935307993801060e-06  -9.8632678656426565e-06  -9.8546885923598331e-06  -9.7579023330065824e-06  -9.5646461700118003e-06  -9.2673604784018735e-06  -8.8584265440606775e-06  -8.3296048079806744e-06  -7.6716190381276514e-06  -6.8738389847866904e-06  -5.9240371451986478e-06  -4.8082310598344554e-06  -3.5106359691037889e-06  -2.0138196923733975e-06  -2.9911723991103368e-07  1.6526443115270804e-06  3.8596603289286621e-06  6.3390772410467197e-06  9.1008558674442862e-06  1.2157450366624366e-05  1.5531558058575883e-05  1.9058477754417017e-05  2.2937429946348662e-05  2.8947113435174373e-05  2.5041356225264049e-05  2.1459552616689218e-05  1.7995754316971857e-05  1.4821592703373575e-05  1.1918778101958494e-05  9.2787180152898128e-06  6.8943501437546281e-06  4.7502799440826452e-06  2.8292037058947308e-06  1.1121314485417221e-06  -4.1989732514828321e-07  -1.7849102386190933e-06  -2.9994381806684594e-06  -4.0782467157570581e-06  -5.0342947143783979e-06  -5.8788088596904085e-06  -6.6214233108572159e-06  -7.2703529641222005e-06  -7.8325318586937921e-06  -8.3139702333547021e-06  -8.7206925924893644e-06  -9.0602420592807002e-06  -9.3455732779248442e-06  -9.5898820675913897e-06  -9.7954158845854097e-06  -9.9501514434720017e-06  -1.0035906982399407e-05  -1.0038136469425513e-05  -9.9471190941540499e-06  -9.7554634131288364e-06  -9.4563870378194308e-06  -9.0427479734757734e-06  -8.5064875800216180e-06  -7.8382770100083003e-06  -7.0272696415153559e-06  -6.0609262129722554e-06  -4.9249278558877989e-06  -3.6032076953599341e-06  -2.0781968101887265e-06  -3.3134154965161076e-07  1.6560608473779750e-06  3.9012797547360948e-06  6.4199997014778943e-06  9.2202030109962716e-06  1.2311953869110259e-05  1.5715122480823472e-05  1.9263203944686743e-05  2.3150082492403828e-05  2.9100554542118123e-05  2.5191247380375021e-05  2.1598888529868736e-05  1.8118728419385172e-05  1.4923745510353336e-05  1.1997361787604963e-05  9.3326158254078696e-06  6.9238950559587052e-06  4.7569469365266539e-06  2.8152677184919355e-06  1.0803421144729634e-06  -4.6659193108147119e-07  -1.8435758866919406e-06  -3.0673031725617263e-06  -4.1527955896649093e-06  -5.1133206108746664e-06  -5.9604403625251488e-06  -6.7041411096919927e-06  -7.3529977163633165e-06  -7.9142772651159476e-06  -8.3942314674272408e-06  -8.7987867070106164e-06  -9.1349404650901304e-06  -9.4199312716314493e-06  -9.6728012499654275e-06  -9.8962240719954958e-06  -1.0071505581032608e-05  -1.0172447944311244e-05  -1.0182832274208247e-05  -1.0094759788886588e-05  -9.9025357915671491e-06  -9.6004360094903153e-06  -9.1818355583191463e-06  -8.6388350390138125e-06  -7.9620439404533497e-06  -7.1404253556022108e-06  -6.1611880967311254e-06  -5.0097578981161573e-06  -3.6698685115564490e-06  -2.1238731691085105e-06  -3.5333287262152513e-07  1.6600752999466009e-06  3.9329174406625922e-06  6.4798103951136573e-06  9.3073353360288466e-06  1.2423911818952946e-05  1.5847501262549585e-05  1.9410458349850023e-05  2.3302966704139679e-05  2.9189298562505019e-05  2.5278218014258459e-05  2.1680193194446222e-05  1.8190972036966919e-05  1.4984258782635080e-05  1.2044417629933291e-05  9.3654093142690522e-06  6.9424657083261074e-06  4.7620202989098134e-06  2.8080709549508552e-06  1.0624207151984753e-06  -4.9353502663669902e-07  -1.8778077000706974e-06  -3.1071521884023714e-06  -4.1967102198645961e-06  -5.1599012942903605e-06  -6.0084544871570940e-06  -6.7525315726917861e-06  -7.4008913863383774e-06  -7.9610210269488390e-06  -8.4394421712416210e-06  -8.8420537644395838e-06  -9.1745194148331733e-06  -9.4588807627882129e-06  -9.7189895975980221e-06  -9.9578999909345672e-06  -1.0151920675517717e-05  -1.0264654802461963e-05  -1.0279191643731523e-05  -1.0191312497514734e-05  -9.9972074287678362e-06  -9.6920165591714600e-06  -9.2694287280222259e-06  -8.7215805927715610e-06  -8.0389821849255692e-06  -7.2104320421046988e-06  -6.2229510762873368e-06  -5.0617870320436069e-06  -3.7105395577796029e-06  -2.1515096881801047e-06  -3.6632952492138205e-07  1.6630877860249529e-06  3.9528749312684922e-06  6.5169982499491524e-06  9.3611933878839950e-06  1.2492899303494318e-05  1.5928945744776002e-05  1.9501031254485740e-05  2.3397095728870275e-05  2.9213264442380502e-05  2.5302126788525231e-05  2.1703080563704520e-05  1.8211776247581712e-05  1.5002079047485549e-05  1.2058593509886329e-05  9.3755393658488124e-06  6.9484080119293127e-06  4.7638590664453900e-06  2.8060708471159079e-06  1.0569746576373310e-06  -5.0195569805196827e-07  -1.8886958590093296e-06  -3.1199978123067198e-06  -4.2110229385721064e-06  -5.1752235226292781e-06  -6.0243669283175245e-06  -6.7686538728276889e-06  -7.4168798360880595e-06  -7.9765945977723634e-06  -8.4543657214966209e-06  -8.8561037895042869e-06  -9.1862937407780677e-06  -9.4684463654373233e-06  -9.7311184041388805e-06  -9.9753486748252813e-06  -1.