<?xml version="1.0"?>
<VTKFile type="UnstructuredGrid"  version="0.1"  >
<UnstructuredGrid>
<Piece  NumberOfPoints="1617" NumberOfCells="3072">
<Points>
<DataArray  type="Float64"  NumberOfComponents="3"  format="ascii">0 0 0  0.03125 0 0  0.0625 0 0  0.09375 0 0  0.125 0 0  0.15625 0 0  0.1875 0 0  0.21875 0 0  0.25 0 0  0.28125 0 0  0.3125 0 0  0.34375 0 0  0.375 0 0  0.40625 0 0  0.4375 0 0  0.46875 0 0  0.5 0 0  0.53125 0 0  0.5625 0 0  0.59375 0 0  0.625 0 0  0.65625 0 0  0.6875 0 0  0.71875 0 0  0.75 0 0  0.78125 0 0  0.8125 0 0  0.84375 0 0  0.875 0 0  0.90625 0 0  0.9375 0 0  0.96875 0 0  1 0 0  1.03125 0 0  1.0625 0 0  1.09375 0 0  1.125 0 0  1.15625 0 0  1.1875 0 0  1.21875 0 0  1.25 0 0  1.28125 0 0  1.3125 0 0  1.34375 0 0  1.375 0 0  1.40625 0 0  1.4375 0 0  1.46875 0 0  1.5 0 0  0 0.03125 0  0.03125 0.03125 0  0.0625 0.03125 0  0.09375 0.03125 0  0.125 0.03125 0  0.15625 0.03125 0  0.1875 0.03125 0  0.21875 0.03125 0  0.25 0.03125 0  0.28125 0.03125 0  0.3125 0.03125 0  0.34375 0.03125 0  0.375 0.03125 0  0.40625 0.03125 0  0.4375 0.03125 0  0.46875 0.03125 0  0.5 0.03125 0  0.53125 0.03125 0  0.5625 0.03125 0  0.59375 0.03125 0  0.625 0.03125 0  0.65625 0.03125 0  0.6875 0.03125 0  0.71875 0.03125 0  0.75 0.03125 0  0.78125 0.03125 0  0.8125 0.03125 0  0.84375 0.03125 0  0.875 0.03125 0  0.90625 0.03125 0  0.9375 0.03125 0  0.96875 0.03125 0  1 0.03125 0  1.03125 0.03125 0  1.0625 0.03125 0  1.09375 0.03125 0  1.125 0.03125 0  1.15625 0.03125 0  1.1875 0.03125 0  1.21875 0.03125 0  1.25 0.03125 0  1.28125 0.03125 0  1.3125 0.03125 0  1.34375 0.03125 0  1.375 0.03125 0  1.40625 0.03125 0  1.4375 0.03125 0  1.46875 0.03125 0  1.5 0.03125 0  0 0.0625 0  0.03125 0.0625 0  0.0625 0.0625 0  0.09375 0.0625 0  0.125 0.0625 0  0.15625 0.0625 0  0.1875 0.0625 0  0.21875 0.0625 0  0.25 0.0625 0  0.28125 0.0625 0  0.3125 0.0625 0  0.34375 0.0625 0  0.375 0.0625 0  0.40625 0.0625 0  0.4375 0.0625 0  0.46875 0.0625 0  0.5 0.0625 0  0.53125 0.0625 0  0.5625 0.0625 0  0.59375 0.0625 0  0.625 0.0625 0  0.65625 0.0625 0  0.6875 0.0625 0  0.71875 0.0625 0  0.75 0.0625 0  0.78125 0.0625 0  0.8125 0.0625 0  0.84375 0.0625 0  0.875 0.0625 0  0.90625 0.0625 0  0.9375 0.0625 0  0.96875 0.0625 0  1 0.0625 0  1.03125 0.0625 0  1.0625 0.0625 0  1.09375 0.0625 0  1.125 0.0625 0  1.15625 0.0625 0  1.1875 0.0625 0  1.21875 0.0625 0  1.25 0.0625 0  1.28125 0.0625 0  1.3125 0.0625 0  1.34375 0.0625 0  1.375 0.0625 0  1.40625 0.0625 0  1.4375 0.0625 0  1.46875 0.0625 0  1.5 0.0625 0  0 0.09375 0  0.03125 0.09375 0  0.0625 0.09375 0  0.09375 0.09375 0  0.125 0.09375 0  0.15625 0.09375 0  0.1875 0.09375 0  0.21875 0.09375 0  0.25 0.09375 0  0.28125 0.09375 0  0.3125 0.09375 0  0.34375 0.09375 0  0.375 0.09375 0  0.40625 0.09375 0  0.4375 0.09375 0  0.46875 0.09375 0  0.5 0.09375 0  0.53125 0.09375 0  0.5625 0.09375 0  0.59375 0.09375 0  0.625 0.09375 0  0.65625 0.09375 0  0.6875 0.09375 0  0.71875 0.09375 0  0.75 0.09375 0  0.78125 0.09375 0  0.8125 0.09375 0  0.84375 0.09375 0  0.875 0.09375 0  0.90625 0.09375 0  0.9375 0.09375 0  0.96875 0.09375 0  1 0.09375 0  1.03125 0.09375 0  1.0625 0.09375 0  1.09375 0.09375 0  1.125 0.09375 0  1.15625 0.09375 0  1.1875 0.09375 0  1.21875 0.09375 0  1.25 0.09375 0  1.28125 0.09375 0  1.3125 0.09375 0  1.34375 0.09375 0  1.375 0.09375 0  1.40625 0.09375 0  1.4375 0.09375 0  1.46875 0.09375 0  1.5 0.09375 0  0 0.125 0  0.03125 0.125 0  0.0625 0.125 0  0.09375 0.125 0  0.125 0.125 0  0.15625 0.125 0  0.1875 0.125 0  0.21875 0.125 0  0.25 0.125 0  0.28125 0.125 0  0.3125 0.125 0  0.34375 0.125 0  0.375 0.125 0  0.40625 0.125 0  0.4375 0.125 0  0.46875 0.125 0  0.5 0.125 0  0.53125 0.125 0  0.5625 0.125 0  0.59375 0.125 0  0.625 0.125 0  0.65625 0.125 0  0.6875 0.125 0  0.71875 0.125 0  0.75 0.125 0  0.78125 0.125 0  0.8125 0.125 0  0.84375 0.125 0  0.875 0.125 0  0.90625 0.125 0  0.9375 0.125 0  0.96875 0.125 0  1 0.125 0  1.03125 0.125 0  1.0625 0.125 0  1.09375 0.125 0  1.125 0.125 0  1.15625 0.125 0  1.1875 0.125 0  1.21875 0.125 0  1.25 0.125 0  1.28125 0.125 0  1.3125 0.125 0  1.34375 0.125 0  1.375 0.125 0  1.40625 0.125 0  1.4375 0.125 0  1.46875 0.125 0  1.5 0.125 0  0 0.15625 0  0.03125 0.15625 0  0.0625 0.15625 0  0.09375 0.15625 0  0.125 0.15625 0  0.15625 0.15625 0  0.1875 0.15625 0  0.21875 0.15625 0  0.25 0.15625 0  0.28125 0.15625 0  0.3125 0.15625 0  0.34375 0.15625 0  0.375 0.15625 0  0.40625 0.15625 0  0.4375 0.15625 0  0.46875 0.15625 0  0.5 0.15625 0  0.53125 0.15625 0  0.5625 0.15625 0  0.59375 0.15625 0  0.625 0.15625 0  0.65625 0.15625 0  0.6875 0.15625 0  0.71875 0.15625 0  0.75 0.15625 0  0.78125 0.15625 0  0.8125 0.15625 0  0.84375 0.15625 0  0.875 0.15625 0  0.90625 0.15625 0  0.9375 0.15625 0  0.96875 0.15625 0  1 0.15625 0  1.03125 0.15625 0  1.0625 0.15625 0  1.09375 0.15625 0  1.125 0.15625 0  1.15625 0.15625 0  1.1875 0.15625 0  1.21875 0.15625 0  1.25 0.15625 0  1.28125 0.15625 0  1.3125 0.15625 0  1.34375 0.15625 0  1.375 0.15625 0  1.40625 0.15625 0  1.4375 0.15625 0  1.46875 0.15625 0  1.5 0.15625 0  0 0.1875 0  0.03125 0.1875 0  0.0625 0.1875 0  0.09375 0.1875 0  0.125 0.1875 0  0.15625 0.1875 0  0.1875 0.1875 0  0.21875 0.1875 0  0.25 0.1875 0  0.28125 0.1875 0  0.3125 0.1875 0  0.34375 0.1875 0  0.375 0.1875 0  0.40625 0.1875 0  0.4375 0.1875 0  0.46875 0.1875 0  0.5 0.1875 0  0.53125 0.1875 0  0.5625 0.1875 0  0.59375 0.1875 0  0.625 0.1875 0  0.65625 0.1875 0  0.6875 0.1875 0  0.71875 0.1875 0  0.75 0.1875 0  0.78125 0.1875 0  0.8125 0.1875 0  0.84375 0.1875 0  0.875 0.1875 0  0.90625 0.1875 0  0.9375 0.1875 0  0.96875 0.1875 0  1 0.1875 0  1.03125 0.1875 0  1.0625 0.1875 0  1.09375 0.1875 0  1.125 0.1875 0  1.15625 0.1875 0  1.1875 0.1875 0  1.21875 0.1875 0  1.25 0.1875 0  1.28125 0.1875 0  1.3125 0.1875 0  1.34375 0.1875 0  1.375 0.1875 0  1.40625 0.1875 0  1.4375 0.1875 0  1.46875 0.1875 0  1.5 0.1875 0  0 0.21875 0  0.03125 0.21875 0  0.0625 0.21875 0  0.09375 0.21875 0  0.125 0.21875 0  0.15625 0.21875 0  0.1875 0.21875 0  0.21875 0.21875 0  0.25 0.21875 0  0.28125 0.21875 0  0.3125 0.21875 0  0.34375 0.21875 0  0.375 0.21875 0  0.40625 0.21875 0  0.4375 0.21875 0  0.46875 0.21875 0  0.5 0.21875 0  0.53125 0.21875 0  0.5625 0.21875 0  0.59375 0.21875 0  0.625 0.21875 0  0.65625 0.21875 0  0.6875 0.21875 0  0.71875 0.21875 0  0.75 0.21875 0  0.78125 0.21875 0  0.8125 0.21875 0  0.84375 0.21875 0  0.875 0.21875 0  0.90625 0.21875 0  0.9375 0.21875 0  0.96875 0.21875 0  1 0.21875 0  1.03125 0.21875 0  1.0625 0.21875 0  1.09375 0.21875 0  1.125 0.21875 0  1.15625 0.21875 0  1.1875 0.21875 0  1.21875 0.21875 0  1.25 0.21875 0  1.28125 0.21875 0  1.3125 0.21875 0  1.34375 0.21875 0  1.375 0.21875 0  1.40625 0.21875 0  1.4375 0.21875 0  1.46875 0.21875 0  1.5 0.21875 0  0 0.25 0  0.03125 0.25 0  0.0625 0.25 0  0.09375 0.25 0  0.125 0.25 0  0.15625 0.25 0  0.1875 0.25 0  0.21875 0.25 0  0.25 0.25 0  0.28125 0.25 0  0.3125 0.25 0  0.34375 0.25 0  0.375 0.25 0  0.40625 0.25 0  0.4375 0.25 0  0.46875 0.25 0  0.5 0.25 0  0.53125 0.25 0  0.5625 0.25 0  0.59375 0.25 0  0.625 0.25 0  0.65625 0.25 0  0.6875 0.25 0  0.71875 0.25 0  0.75 0.25 0  0.78125 0.25 0  0.8125 0.25 0  0.84375 0.25 0  0.875 0.25 0  0.90625 0.25 0  0.9375 0.25 0  0.96875 0.25 0  1 0.25 0  1.03125 0.25 0  1.0625 0.25 0  1.09375 0.25 0  1.125 0.25 0  1.15625 0.25 0  1.1875 0.25 0  1.21875 0.25 0  1.25 0.25 0  1.28125 0.25 0  1.3125 0.25 0  1.34375 0.25 0  1.375 0.25 0  1.40625 0.25 0  1.4375 0.25 0  1.46875 0.25 0  1.5 0.25 0  0 0.28125 0  0.03125 0.28125 0  0.0625 0.28125 0  0.09375 0.28125 0  0.125 0.28125 0  0.15625 0.28125 0  0.1875 0.28125 0  0.21875 0.28125 0  0.25 0.28125 0  0.28125 0.28125 0  0.3125 0.28125 0  0.34375 0.28125 0  0.375 0.28125 0  0.40625 0.28125 0  0.4375 0.28125 0  0.46875 0.28125 0  0.5 0.28125 0  0.53125 0.28125 0  0.5625 0.28125 0  0.59375 0.28125 0  0.625 0.28125 0  0.65625 0.28125 0  0.6875 0.28125 0  0.71875 0.28125 0  0.75 0.28125 0  0.78125 0.28125 0  0.8125 0.28125 0  0.84375 0.28125 0  0.875 0.28125 0  0.90625 0.28125 0  0.9375 0.28125 0  0.96875 0.28125 0  1 0.28125 0  1.03125 0.28125 0  1.0625 0.28125 0  1.09375 0.28125 0  1.125 0.28125 0  1.15625 0.28125 0  1.1875 0.28125 0  1.21875 0.28125 0  1.25 0.28125 0  1.28125 0.28125 0  1.3125 0.28125 0  1.34375 0.28125 0  1.375 0.28125 0  1.40625 0.28125 0  1.4375 0.28125 0  1.46875 0.28125 0  1.5 0.28125 0  0 0.3125 0  0.03125 0.3125 0  0.0625 0.3125 0  0.09375 0.3125 0  0.125 0.3125 0  0.15625 0.3125 0  0.1875 0.3125 0  0.21875 0.3125 0  0.25 0.3125 0  0.28125 0.3125 0  0.3125 0.3125 0  0.34375 0.3125 0  0.375 0.3125 0  0.40625 0.3125 0  0.4375 0.3125 0  0.46875 0.3125 0  0.5 0.3125 0  0.53125 0.3125 0  0.5625 0.3125 0  0.59375 0.3125 0  0.625 0.3125 0  0.65625 0.3125 0  0.6875 0.3125 0  0.71875 0.3125 0  0.75 0.3125 0  0.78125 0.3125 0  0.8125 0.3125 0  0.84375 0.3125 0  0.875 0.3125 0  0.90625 0.3125 0  0.9375 0.3125 0  0.96875 0.3125 0  1 0.3125 0  1.03125 0.3125 0  1.0625 0.3125 0  1.09375 0.3125 0  1.125 0.3125 0  1.15625 0.3125 0  1.1875 0.3125 0  1.21875 0.3125 0  1.25 0.3125 0  1.28125 0.3125 0  1.3125 0.3125 0  1.34375 0.3125 0  1.375 0.3125 0  1.40625 0.3125 0  1.4375 0.3125 0  1.46875 0.3125 0  1.5 0.3125 0  0 0.34375 0  0.03125 0.34375 0  0.0625 0.34375 0  0.09375 0.34375 0  0.125 0.34375 0  0.15625 0.34375 0  0.1875 0.34375 0  0.21875 0.34375 0  0.25 0.34375 0  0.28125 0.34375 0  0.3125 0.34375 0  0.34375 0.34375 0  0.375 0.34375 0  0.40625 0.34375 0  0.4375 0.34375 0  0.46875 0.34375 0  0.5 0.34375 0  0.53125 0.34375 0  0.5625 0.34375 0  0.59375 0.34375 0  0.625 0.34375 0  0.65625 0.34375 0  0.6875 0.34375 0  0.71875 0.34375 0  0.75 0.34375 0  0.78125 0.34375 0  0.8125 0.34375 0  0.84375 0.34375 0  0.875 0.34375 0  0.90625 0.34375 0  0.9375 0.34375 0  0.96875 0.34375 0  1 0.34375 0  1.03125 0.34375 0  1.0625 0.34375 0  1.09375 0.34375 0  1.125 0.34375 0  1.15625 0.34375 0  1.1875 0.34375 0  1.21875 0.34375 0  1.25 0.34375 0  1.28125 0.34375 0  1.3125 0.34375 0  1.34375 0.34375 0  1.375 0.34375 0  1
[...]
<PointData  Scalars="f_33"> 
<DataArray  type="Float64"  Name="f_33"  format="ascii">2.0547675848626716e-05  1.9056686270756184e-05  1.6549206984314556e-05  1.3975513469338724e-05  1.1525526094805143e-05  9.2287695042511978e-06  7.0906441706938710e-06  5.1085069268756231e-06  3.2768013317404597e-06  1.5893275613487816e-06  3.9876234492791283e-08  -1.3776216822180253e-06  -2.6690514237577820e-06  -3.8400816762893667e-06  -4.8961286949533632e-06  -5.8423191013159184e-06  -6.6834538179040104e-06  -7.4239738766445795e-06  -8.0679273712761316e-06  -8.6189358759150620e-06  -9.0801583341325494e-06  -9.4542508847780451e-06  -9.7433223964162530e-06  -9.9488874530701545e-06  -1.0071820668538940e-05  -1.0112317773647772e-05  -1.0069869237682292e-05  -9.9432509682391201e-06  -9.7305341698615723e-06  -9.4291135027092056e-06  -9.0357501333179738e-06  -8.5466248101714721e-06  -7.9573958210791029e-06  -7.2632575758524060e-06  -6.4589965886021475e-06  -5.5390433853776742e-06  -4.4975180845286787e-06  -3.3282703479898860e-06  -2.0249039596423927e-06  -5.8079014982251236e-07  1.0109691789881875e-06  2.7576801324690481e-06  4.6670546859925791e-06  6.7490878791502383e-06  9.0099634115524337e-06  1.1467073671580504e-05  1.4153267050204526e-05  1.6893847778150425e-05  1.7953546547178408e-05  2.0933779644421784e-05  1.9358782942018645e-05  1.6586016503557354e-05  1.3905603183692670e-05  1.1423575105517973e-05  9.1189513063953743e-06  6.9807906783801751e-06  5.0019803796415891e-06  3.1749254290917511e-06  1.4925508233253012e-06  -5.1734406487914637e-08  -1.4641764806435711e-06  -2.7507533277144725e-06  -3.9171884519593979e-06  -4.9689340564321561e-06  -5.9111422700180539e-06  -6.7486334630834954e-06  -7.4858648543613514e-06  -8.1268996138434646e-06  -8.6753750355908404e-06  -9.1344676862377709e-06  -9.5068537324519919e-06  -9.7946639658334686e-06  -9.9994352007111554e-06  -1.0122062165715869e-05  -1.0162755883544791e-05  -1.0121014993335383e-05  -9.9956151394768504e-06  -9.7846187563143332e-06  -9.4854042364032228e-06  -9.0947106138280990e-06  -8.6086923081782529e-06  -8.0229782628266248e-06  -7.3327308071316854e-06  -6.5327007588599406e-06  -5.6172767785652689e-06  -4.5805262317534591e-06  -3.4162256520902783e-06  -2.1178688254593743e-06  -6.7864433326602080e-07  9.0867036721719879e-07  2.6519839377001234e-06  4.5602407351424295e-06  6.6455721986296221e-06  8.9191741873205907e-06  1.1410905342866960e-05  1.4172243900382745e-05  1.7111967203726289e-05  1.8545401548983164e-05  2.1685514852043760e-05  1.9944727002524307e-05  1.6809177058621851e-05  1.3916596644357523e-05  1.1327265234857330e-05  8.9702754875368326e-06  6.8057602301630082e-06  4.8152988206796726e-06  2.9847001047613496e-06  1.3033633853084417e-06  -2.3725253352685017e-07  -1.6445238969364707e-06  -2.9251178878643818e-06  -4.0852004529196997e-06  -5.1305215817499288e-06  -6.0664424059056489e-06  -6.8979359049728795e-06  -7.6295758965292537e-06  -8.2655201643203586e-06  -8.8094888093910180e-06  -9.2647364705173643e-06  -9.6340164152807418e-06  -9.9195355788058694e-06  -1.0122902207753722e-05  -1.0245071111947956e-05  -1.0286294333002476e-05  -1.0246085917407427e-05  -1.0123207730705155e-05  -9.9156793261306188e-06  -9.6208102031688011e-06  -9.2352489361617187e-06  -8.7550417053455742e-06  -8.1756927329317886e-06  -7.4922205291608154e-06  -6.6992051697322165e-06  -5.7908228874765808e-06  -4.7608617751150291e-06  -3.6027102250808277e-06  -2.3092919202928629e-06  -8.7291578430605144e-07  7.1506860867749908e-07  2.4649715343644567e-06  4.3899088959329236e-06  6.5094139215331826e-06  8.8472766442241270e-06  1.1459106980104693e-05  1.4423072004303054e-05  1.7643739522802394e-05  1.9294865850586686e-05  2.2572990860332782e-05  2.0691887038877771e-05  1.7232948062362767e-05  1.4076750221943747e-05  1.1313198586308403e-05  8.8503677850644443e-06  6.6217472420651213e-06  4.5942365676637623e-06  2.7434247670501897e-06  1.0525562447157301e-06  -4.9075048200467792e-07  -1.8963257255264530e-06  -3.1724414760857278e-06  -4.3263432086889931e-06  -5.3645278285126936e-06  -6.2928871786816915e-06  -7.1167811985278302e-06  -7.8410743809204343e-06  -8.4701519186576229e-06  -9.0079220067679584e-06  -9.4578050360139231e-06  -9.8227077894739710e-06  -1.0104981111157398e-05  -1.0306362694788681e-05  -1.0427911641800122e-05  -1.0469946086613224e-05  -1.0431996902363054e-05  -1.0312787850222340e-05  -1.0110246266791259e-05  -9.8215410268461803e-06  -9.4431388161379372e-06  -8.9708673197179312e-06  -8.3999744861348816e-06  -7.7251752978767374e-06  -6.9406790796994192e-06  -6.0401905766244944e-06  -5.0168729428763188e-06  -3.8632539151278822e-06  -2.5710301885635245e-06  -1.1307077663166849e-06  4.6908215260373114e-07  2.2428197083103637e-06  4.2100347321152318e-06  6.4000145932628670e-06  8.8501673023813128e-06  1.1633366313352788e-05  1.4832538957948488e-05  1.8314652192143744e-05  2.0121803403555267e-05  2.3475132464925484e-05  2.1498850591541019e-05  1.7788885556166164e-05  1.4378371288149274e-05  1.1412599014290886e-05  8.8063604309052215e-06  6.4797872230832990e-06  4.3880292251143255e-06  2.4963641828886505e-06  7.8088361430651631e-07  -7.7582694934048319e-07  -2.1871071612918281e-06  -3.4636806013205107e-06  -4.6145275424425770e-06  -5.6473901600216589e-06  -6.5690677320745971e-06  -7.3855918255526123e-06  -8.1023336479266558e-06  -8.7240716834429558e-06  -9.2550327139754244e-06  -9.6989096037482738e-06  -1.0058853768874376e-05  -1.0337439356788843e-05  -1.0536600213212897e-05  -1.0657548644714526e-05  -1.0700693127205160e-05  -1.0665575500214209e-05  -1.0550843844414684e-05  -1.0354266533567941e-05  -1.0072780764586030e-05  -9.7025602686999333e-06  -9.2390843259600102e-06  -8.6771924685884845e-06  -8.0111134768038881e-06  -7.2344597051257909e-06  -6.3401771611523867e-06  -5.3204340623759996e-06  -4.1664197336257252e-06  -2.8679940315345671e-06  -1.4131063225071406e-06  2.1319568551447706e-07  2.0303888024971396e-06  4.0647880737781377e-06  6.3543418057647143e-06  8.9455788185685298e-06  1.1917234352919548e-05  1.5341883460480175e-05  1.9043763222852316e-05  2.0963453759927987e-05  2.4345652685121761e-05  2.2302743272611540e-05  1.8403558316732944e-05  1.4773029938707379e-05  1.1608812842780150e-05  8.8442243369871061e-06  6.3987959740737626e-06  4.2218171955874349e-06  2.2709577293593319e-06  5.1590293779864573e-07  -1.0659211183706569e-06  -2.4917976698564345e-06  -3.7754097795078300e-06  -4.9279524820454419e-06  -5.9588268193722265e-06  -6.8760798795663479e-06  -7.6866875795251735e-06  -8.3967429741876684e-06  -9.0115868210269219e-06  -9.5358990249895898e-06  -9.9737561275089591e-06  -1.0328651031548197e-05  -1.0603468248673710e-05  -1.0800413194554902e-05  -1.0920907186586086e-05  -1.0965474689050861e-05  -1.0933656274446755e-05  -1.0823973363827362e-05  -1.0633951745685895e-05  -1.0360190095517817e-05  -9.9984469686755807e-06  -9.5437184509044919e-06  -8.9902851879070155e-06  -8.3317157181315864e-06  -7.5608172425383167e-06  -6.6695238543673927e-06  -5.6487026026584780e-06  -4.4878450363003595e-06  -3.1745797919307182e-06  -1.6939266692020475e-06  -2.7130760675331649e-08  1.8500758664344133e-06  3.9696657684118857e-06  6.3754036539780177e-06  9.1174910170387529e-06  1.2272340987336024e-05  1.5895744578511141e-05  1.9772831140975864e-05  2.1772620252718789e-05  2.5161962142739959e-05  2.3070418886832567e-05  1.9027721182270497e-05  1.5215523820330071e-05  1.1871846676598540e-05  8.9510074409029399e-06  6.3790920329035414e-06  4.1048423423409085e-06  2.0818750080141695e-06  2.7522445974484798e-07  -1.3421014680423060e-06  -2.7911411289399905e-06  -4.0886321027536924e-06  -5.2481996843230475e-06  -6.2811526999378007e-06  -7.1970259203334225e-06  -8.0039513294187798e-06  -8.7089212290390334e-06  -9.3179830227702122e-06  -9.8363873182989564e-06  -1.0268694420211340e-05  -1.0618830949607173e-05  -1.0890081643070586e-05  -1.1085007558723023e-05  -1.1205304097783850e-05  -1.1251640321987756e-05  -1.1223535716411571e-05  -1.1119317567188127e-05  -1.0936166840095577e-05  -1.0670224123358459e-05  -1.0316709215224248e-05  -9.8700120815441344e-06  -9.3237289039303815e-06  -8.6706322077927425e-06  -7.9025707522480029e-06  -7.0102930263584223e-06  -5.9831769677728368e-06  -4.8088358995581917e-06  -3.4725423893747491e-06  -1.9564088526303208e-06  -2.3820583232333035e-07  1.7102412299100163e-06  3.9247789748136898e-06  6.4519600800089881e-06  9.3414231219875247e-06  1.2662845760861914e-05  1.6454264088969848e-05  2.0469162344036973e-05  2.2527442246058435e-05  2.5912549004626335e-05  2.3784250751926338e-05  1.9631027357560525e-05  1.5671173851937938e-05  1.2172009857279599e-05  9.1067805018515570e-06  6.4107511390758175e-06  4.0355649378534926e-06  1.9338021175548599e-06  6.7804392823430648e-08  -1.5926665006191693e-06  -3.0717998709913323e-06  -4.3891431690775444e-06  -5.5607116693910284e-06  -6.5997883687704587e-06  -7.5175089470859086e-06  -8.3232860866726146e-06  -9.0251279950614923e-06  -9.6298888616504773e-06  -1.0143473839920796e-05  -1.0571001842049289e-05  -1.0916910641508800e-05  -1.1184973617359742e-05  -1.1378202180058711e-05  -1.1498645131665061e-05  -1.1547150007725574e-05  -1.1523183954054845e-05  -1.1424788314677656e-05  -1.1248672729242695e-05  -1.0990389248590952e-05  -1.0644504586693692e-05  -1.0204708840760146e-05  -9.6638340623766211e-06  -9.0137817763022433e-06  -8.2453665776754174e-06  -7.3480783090912686e-06  -6.3097517111817267e-06  -5.1161208030786548e-06  -3.7502127285504402e-06  -2.1915464771545302e-06  -4.1506549628956355e-07  1.6101703151215283e-06  3.9221056924447533e-06  6.5676748403171334e-06  9.5933752477639035e-06  1.3060538438333511e-05  1.6991194313147052e-05  2.1114719880574830e-05  2.3217052784185966e-05  2.6591173419455022e-05  2.4434443709627576e-05  2.0194856341341367e-05  1.6115591654486770e-05  1.2484932345808327e-05  9.2915939192391705e-06  6.4801426286042031e-06  4.0068042089180367e-06  1.8251378042381035e-06  -1.0354620786385836e-07  -1.8115227626314302e-06  -3.3253571579440071e-06  -4.6669568779773944e-06  -5.8544979576961735e-06  -6.9031487964419890e-06  -7.8256388969696449e-06  -8.6326957911908323e-06  -9.3333922096275789e-06  -9.9354361661383449e-06  -1.0445427354272473e-05  -1.0869081563488487e-05  -1.1211400619584256e-05  -1.1476729988398156e-05  -1.1668642220883494e-05  -1.1789643267573545e-05  -1.1840802269153337e-05  -1.1821482404610357e-05  -1.1729306489544963e-05  -1.1560350645172474e-05  -1.1309438740314685e-05  -1.0970392922814563e-05  -1.0536157815315634e-05  -9.9987857099524509e-06  -9.3493066046548677e-06  -8.5775101191615889e-06  -7.6716537453334565e-06  -6.6180938711060889e-06  -5.4008254155920637e-06  -4.0008994333104935e-06  -2.3957103311297524e-06  -5.5812248033133602e-07  1.5444782469502721e-06  3.9507080405249915e-06  6.7063018595422990e-06  9.8534156020552342e-06  1.3445083869341811e-05  1.7490000044474322e-05  2.1699665507716522e-05  2.3836009660798810e-05  2.7194284584238103e-05  2.5015279030024021e-05  2.0707568859874567e-05  1.6532009837047403e-05  1.2791925504474067e-05  9.4880976688585164e-06  6.5734000022405568e-06  4.0090893101353896e-06  1.7508017058053775e-06  -2.4000422210668136e-07  -1.9966257272485372e-06  -3.5472443057920950e-06  -4.9156032458778190e-06  -6.1217045813913993e-06  -7.1824063692818440e-06  -8.1119301460427337e-06  -8.9222745896383369e-06  -9.6235632565761672e-06  -1.0224353754796438e-05  -1.0731934116526954e-05  -1.1152610553379384e-05  -1.1491966884402455e-05  -1.1754994063699439e-05  -1.1945962685815147e-05  -1.2067984790561789e-05  -1.2122411202130770e-05  -1.2108409917784610e-05  -1.2022980215662854e-05  -1.1861348959954995e-05  -1.1617469667052416e-05  -1.1284373429564373e-05  -1.0854284984399247e-05  -1.0318540078812195e-05  -9.6673750255625395e-06  -8.8896417104731648e-06  -7.9724726792944507e-06  -6.9008969185579519e-06  -5.6573980900767013e-06  -4.2213965294699842e-06  -2.5686673302960833e-06  -6.7069238152840243e-07  1.5059341817923592e-06  3.9995197883409127e-06  6.8537493581858329e-06  1.0106167571442654e-05  1.3802373092442141e-05  1.7940415646065608e-05  2.2218659385721185e-05  2.4381679605952568e-05  2.7719779562773489e-05  2.5523266338328900e-05  2.1161707613842219e-05  1.6908912238993341e-05  1.3079081931173571e-05  9.6821857383831019e-06  6.6780388804631185e-06  4.0326672701728722e-06  1.7042119837439800e-06  -3.4501346445227219e-07  -2.1485922165352052e-06  -3.7356822338116057e-06  -5.1313590488868801e-06  -6.3570822874771492e-06  -7.4311459063966818e-06  -8.3690984047060610e-06  -9.1841078568987075e-06  -9.8872863522998791e-06  -1.0487996446856163e-05  -1.0994168653487013e-05  -1.1412644887287331e-05  -1.1749561400194507e-05  -1.2010603614471571e-05  -1.2200918200352455e-05  -1.2324460775289456e-05  -1.2382955093392127e-05  -1.2375201182710898e-05  -1.2297239388699880e-05  -1.2143158097782396e-05  -1.1905920789126970e-05  -1.1577805825648179e-05  -1.1150442888467643e-05  -1.0614601409555146e-05  -9.9598718100337993e-06  -9.1743136171765523e-06  -8.2440938255337353e-06  -7.1531117819593593e-06  -5.8826030743512757e-06  -4.4107112725252072e-06  -2.7120536640014559e-06  -7.5729478152061520e-07  1.4871390114300080e-06  4.0586769259469276e-06  6.9986441375169439e-06  1.0340252008904639e-05  1.4122826757045028e-05  1.8336142502080166e-05  2.2668932296631578e-05  2.4853016661809323e-05  2.8166378220792841e-05  2.5956205840253703e-05  2.1552374667583680e-05  1.7238331430771265e-05  1.3336187357958110e-05  9.8627946500940856e-06  6.7835219234168685e-06  4.0685538318265324e-06  1.6785296769856480e-06  -4.2305495450484444e-07  -2.2696031764290492e-06  -3.8907691289875971e-06  -5.3125308732613444e-06  -6.5574524761038262e-06  -7.6449904452416810e-06  -8.5918191403887721e-06  -9.4121348906475349e-06  -1.0117942445627613e-05  -1.0719340021368514e-05  -1.1224831809417077e-05  -1.1641699177203753e-05  -1.1976541438180896e-05  -1.2235717714813170e-05  -1.2425490254578213e-05  -1.2551075894007059e-05  -1.2614713212103494e-05  -1.2614487473033713e-05  -1.2544916738770986e-05  -1.2398587075146594e-05  -1.2167445491067418e-05  -1.1843206250544501e-05  -1.1417153131113901e-05  -1.0879717562418293e-05  -1.0220035826850703e-05  -9.4255467466234685e-06  -8.4816291289216193e-06  -7.3712604788936130e-06  -6.0746859205812469e-06  -4.5690905326209251e-06  -2.8283098132234714e-06  -8.2259933161327152e-07  1.4814017064295507e-06  4.1199995855268460e-06  7.1322096672862291e-06  1.0547470727416250e-05  1.4400040347324861e-05  1.8673387548227527e-05  2.3049208216084408e-05  2.5249878484456269e-05  2.8533286841770171e-05  2.6312680801792824e-05  2.1876292908058050e-05  1.7514720388315033e-05  1.3555802511997002e-05  1.0021454789857949e-05  6.8813267799150924e-06  4.1090134639294435e-06  1.6673873965023947e-06  -4.7881827324447878e-07  -2.3625854569481761e-06  -4.0137418365086703e-06  -5.4588318730140396e-06  -6.7212127328121929e-06  -7.8212352726709253e-06  -8.7764810521414486e-06  -9.6020059582168916e-06  -1.0310586392147729e-05  -1.0912974625228904e-05  -1.1418181387399099e-05  -1.1833819804423511e-05  -1.2166808382825970e-05  -1.2423964954802548e-05  -1.2613005628304147e-05  -1.2741177527214587e-05  -1.2811425577151702e-05  -1.2820419114906481e-05  -1.2760228814190349e-05  -1.2621575966953642e-05  -1.2395613735445783e-05  -1.2073910197772819e-05  -1.1647769015128934e-05  -1.1107544756556878e-05  -1.0442107239287707e-05  -9.6384332094613488e-06  -8.6812774164500316e-06  -7.5528866360984586e-06  -6.2327431719997975e-06  -4.6973354328347303e-06  -2.9199963161791930e-06  -8.7083294483336888e-07  1.4831219000775599e-06  4.1770404633477527e-06  7.2478981011160387e-06  1.0722044178334476e-05  1.4629798392118692e-05  1.8949936487280018e-05  2.3359066448866101e-05  2.5572609932315075e-05  2.8820009304547454e-05  2.6591770575234142e-05  2.2131254571223312e-05  1.7734223507092808e-05  1.3732575407489973e-05  1.0151836395948394e-05  6.9648126908532661e-06  4.1477304273351079e-06  1.6652892231595915e-06  -5.1666522383140076e-07  -2.4306229348494492e-06  -4.1063979363943628e-06  -5.5708575480499530e-06  -6.8478929831977684e-06  -7.9585002759588383e-06  -8.9209433815729730e-06  -9.7509466867110971e-06  -1.0461909319823280e-05  -1.1065138779555241e-05  -1.1570097987378370e-05  -1.1984675850032527e-05  -1.2315983495327365e-05  -1.2570648886064020e-05  -1.2758377132197245e-05  -1.2889726317115016e-05  -1.2968493846765577e-05  -1.2988676854805356e-05  -1.2938500355955494e-05  -1.2806712094128855e-05  -1.2584392564873607e-05  -1.2263627889779262e-05  -1.1836125381921879e-05  -1.1292360060007752e-05  -1.0621057672680835e-05  -9.8088458669545843e-06  -8.8399892000861397e-06  -7.6961681466676258e-06  -6.3562937894180335e-06  -4.7963624271621413e-06  -2.9893959759758171e-06  -9.0549212425415294e-07  1.4878914368976453e-06  4.2249382293408991e-06  7.3409779049507784e-06  1.0859989365620648e-05  1.4809378559362660e-05  1.9164553917726291e-05  2.3598540974930952e-05  2.5821768382069888e-05  2.9026240087829266e-05  2.6792885673258668e-05  2.2315793614813398e-05  1.7894212624202304e-05  1.3862758159337662e-05  1.0249375109992191e-05  7.0290358573040407e-06  4.1798339981944543e-06  1.6678194426322148e-06  -5.4028790825684698e-07  -2.4765364537126079e-06  -4.1706457003234316e-06  -5.6496433277706122e-06  -6.9377489274166638e-06  -8.0563820461102210e-06  -9.0242690840920685e-06  -9.8575967718072814e-06  -1.0570204070704105e-05  -1.1173807453407728e-05  -1.1678238443665699e-05  -1.2091711024571333e-05  -1.2421579482215131e-05  -1.2673113046124953e-05  -1.2858865328275089e-05  -1.2993970528330034e-05  -1.3082997591729531e-05  -1.3115978479974515e-05  -1.3075299983369336e-05  -1.2948303196018129e-05  -1.2727456265240889e-05  -1.2406037286225825e-05  -1.1976327545127497e-05  -1.1428942560695418e-05  -1.0752487186432807e-05  -9.9333068147925117e-06  -8.9552883438363546e-06  -7.7996935707228768e-06  -6.4450280456594458e-06  -4.8669565112078183e-06  -3.0383146830155555e-06  -9.2924085278643568e-07  1.4924537803349771e-06  4.2602074671806742e-06  7.4081634949611956e-06  1.0958645157086865e-05  1.4937068006930168e-05  1.9316589218031729e-05  2.3767860448959057e-05  2.5997938645872293e-05  2.9151804958746366e-05  2.6915673964293685e-05  2.2428991852983977e-05  1.7992997320890064e-05  1.3943883462775144e-05  1.0310994870150881e-05  7.0705811694126976e-06  4.2018681601848286e-06  1.6717480050001550e-06  -5.5249024992991755e-07  -2.5025833490376286e-06  -4.2081518665273918e-06  -5.6962854151895034e-06  -6.9913746828233795e-06  -8.1150740578713054e-06  -9.0863718134767162e-06  -9.9217165463651490e-06  -1.0635190671829117e-05  -1.1238727739012159e-05  -1.1742367762517522e-05  -1.2154651304543417e-05  -1.2483249662558663e-05  -1.2731472099402823e-05  -1.2915704797096857e-05  -1.3054393337456843e-05  -1.3152615295707272e-05  -1.3198223505823363e-05  -1.3164659757270120e-05  -1.3039194846252145e-05  -1.2817743519858223e-05  -1.2494796150656523e-05  -1.2062933901171547e-05  -1.1512765972387906e-05  -1.0832756996299977e-05  -1.0009039899196689e-05  -9.0252490374906391e-06  -7.8623814959796806e-06  -6.4986955459385696e-06  -4.9096601838239766e-06  -3.0680071218212531e-06  -9.4390795164094784e-07  1.4946081615442393e-06  4.2805347883006301e-06  7.4473194537978076e-06  1.1016328648589365e-05  1.5011834068236727e-05  1.9405717217533063e-05  2.3867276722845478e-05  2.6101606779653900e-05  2.9196630153164814e-05  2.6959970037853839e-05  2.2470368555008957e-05  1.8029651998394107e-05  1.3974561130105911e-05  1.0334921513934136e-05  7.0874355162264964e-06  4.2117505449562657e-06  1.6750822404226205e-06  -5.5505049400357594e-07  -2.5102481015924758e-06  -4.2200746633201130e-06  -5.7116257612427760e-06  -7.0093418318763494e-06  -8.1349536750468077e-06  -9.1075383495630784e-06  -9.9436345924592622e-06  -1.0657407319084211e-05  -1.1260859749204527e-05  -1.1764105999157498e-05  -1.2175804229627925e-05  -1.2503566584013280e-05  -1.2750079618103477e-05  -1.2932963818802754e-05  -1.3074124