<?xml version="1.0"?>
<VTKFile type="UnstructuredGrid"  version="0.1"  >
<UnstructuredGrid>
<Piece  NumberOfPoints="1617" NumberOfCells="3072">
<Points>
<DataArray  type="Float64"  NumberOfComponents="3"  format="ascii">0 0 0  0.03125 0 0  0.0625 0 0  0.09375 0 0  0.125 0 0  0.15625 0 0  0.1875 0 0  0.21875 0 0  0.25 0 0  0.28125 0 0  0.3125 0 0  0.34375 0 0  0.375 0 0  0.40625 0 0  0.4375 0 0  0.46875 0 0  0.5 0 0  0.53125 0 0  0.5625 0 0  0.59375 0 0  0.625 0 0  0.65625 0 0  0.6875 0 0  0.71875 0 0  0.75 0 0  0.78125 0 0  0.8125 0 0  0.84375 0 0  0.875 0 0  0.90625 0 0  0.9375 0 0  0.96875 0 0  1 0 0  1.03125 0 0  1.0625 0 0  1.09375 0 0  1.125 0 0  1.15625 0 0  1.1875 0 0  1.21875 0 0  1.25 0 0  1.28125 0 0  1.3125 0 0  1.34375 0 0  1.375 0 0  1.40625 0 0  1.4375 0 0  1.46875 0 0  1.5 0 0  0 0.03125 0  0.03125 0.03125 0  0.0625 0.03125 0  0.09375 0.03125 0  0.125 0.03125 0  0.15625 0.03125 0  0.1875 0.03125 0  0.21875 0.03125 0  0.25 0.03125 0  0.28125 0.03125 0  0.3125 0.03125 0  0.34375 0.03125 0  0.375 0.03125 0  0.40625 0.03125 0  0.4375 0.03125 0  0.46875 0.03125 0  0.5 0.03125 0  0.53125 0.03125 0  0.5625 0.03125 0  0.59375 0.03125 0  0.625 0.03125 0  0.65625 0.03125 0  0.6875 0.03125 0  0.71875 0.03125 0  0.75 0.03125 0  0.78125 0.03125 0  0.8125 0.03125 0  0.84375 0.03125 0  0.875 0.03125 0  0.90625 0.03125 0  0.9375 0.03125 0  0.96875 0.03125 0  1 0.03125 0  1.03125 0.03125 0  1.0625 0.03125 0  1.09375 0.03125 0  1.125 0.03125 0  1.15625 0.03125 0  1.1875 0.03125 0  1.21875 0.03125 0  1.25 0.03125 0  1.28125 0.03125 0  1.3125 0.03125 0  1.34375 0.03125 0  1.375 0.03125 0  1.40625 0.03125 0  1.4375 0.03125 0  1.46875 0.03125 0  1.5 0.03125 0  0 0.0625 0  0.03125 0.0625 0  0.0625 0.0625 0  0.09375 0.0625 0  0.125 0.0625 0  0.15625 0.0625 0  0.1875 0.0625 0  0.21875 0.0625 0  0.25 0.0625 0  0.28125 0.0625 0  0.3125 0.0625 0  0.34375 0.0625 0  0.375 0.0625 0  0.40625 0.0625 0  0.4375 0.0625 0  0.46875 0.0625 0  0.5 0.0625 0  0.53125 0.0625 0  0.5625 0.0625 0  0.59375 0.0625 0  0.625 0.0625 0  0.65625 0.0625 0  0.6875 0.0625 0  0.71875 0.0625 0  0.75 0.0625 0  0.78125 0.0625 0  0.8125 0.0625 0  0.84375 0.0625 0  0.875 0.0625 0  0.90625 0.0625 0  0.9375 0.0625 0  0.96875 0.0625 0  1 0.0625 0  1.03125 0.0625 0  1.0625 0.0625 0  1.09375 0.0625 0  1.125 0.0625 0  1.15625 0.0625 0  1.1875 0.0625 0  1.21875 0.0625 0  1.25 0.0625 0  1.28125 0.0625 0  1.3125 0.0625 0  1.34375 0.0625 0  1.375 0.0625 0  1.40625 0.0625 0  1.4375 0.0625 0  1.46875 0.0625 0  1.5 0.0625 0  0 0.09375 0  0.03125 0.09375 0  0.0625 0.09375 0  0.09375 0.09375 0  0.125 0.09375 0  0.15625 0.09375 0  0.1875 0.09375 0  0.21875 0.09375 0  0.25 0.09375 0  0.28125 0.09375 0  0.3125 0.09375 0  0.34375 0.09375 0  0.375 0.09375 0  0.40625 0.09375 0  0.4375 0.09375 0  0.46875 0.09375 0  0.5 0.09375 0  0.53125 0.09375 0  0.5625 0.09375 0  0.59375 0.09375 0  0.625 0.09375 0  0.65625 0.09375 0  0.6875 0.09375 0  0.71875 0.09375 0  0.75 0.09375 0  0.78125 0.09375 0  0.8125 0.09375 0  0.84375 0.09375 0  0.875 0.09375 0  0.90625 0.09375 0  0.9375 0.09375 0  0.96875 0.09375 0  1 0.09375 0  1.03125 0.09375 0  1.0625 0.09375 0  1.09375 0.09375 0  1.125 0.09375 0  1.15625 0.09375 0  1.1875 0.09375 0  1.21875 0.09375 0  1.25 0.09375 0  1.28125 0.09375 0  1.3125 0.09375 0  1.34375 0.09375 0  1.375 0.09375 0  1.40625 0.09375 0  1.4375 0.09375 0  1.46875 0.09375 0  1.5 0.09375 0  0 0.125 0  0.03125 0.125 0  0.0625 0.125 0  0.09375 0.125 0  0.125 0.125 0  0.15625 0.125 0  0.1875 0.125 0  0.21875 0.125 0  0.25 0.125 0  0.28125 0.125 0  0.3125 0.125 0  0.34375 0.125 0  0.375 0.125 0  0.40625 0.125 0  0.4375 0.125 0  0.46875 0.125 0  0.5 0.125 0  0.53125 0.125 0  0.5625 0.125 0  0.59375 0.125 0  0.625 0.125 0  0.65625 0.125 0  0.6875 0.125 0  0.71875 0.125 0  0.75 0.125 0  0.78125 0.125 0  0.8125 0.125 0  0.84375 0.125 0  0.875 0.125 0  0.90625 0.125 0  0.9375 0.125 0  0.96875 0.125 0  1 0.125 0  1.03125 0.125 0  1.0625 0.125 0  1.09375 0.125 0  1.125 0.125 0  1.15625 0.125 0  1.1875 0.125 0  1.21875 0.125 0  1.25 0.125 0  1.28125 0.125 0  1.3125 0.125 0  1.34375 0.125 0  1.375 0.125 0  1.40625 0.125 0  1.4375 0.125 0  1.46875 0.125 0  1.5 0.125 0  0 0.15625 0  0.03125 0.15625 0  0.0625 0.15625 0  0.09375 0.15625 0  0.125 0.15625 0  0.15625 0.15625 0  0.1875 0.15625 0  0.21875 0.15625 0  0.25 0.15625 0  0.28125 0.15625 0  0.3125 0.15625 0  0.34375 0.15625 0  0.375 0.15625 0  0.40625 0.15625 0  0.4375 0.15625 0  0.46875 0.15625 0  0.5 0.15625 0  0.53125 0.15625 0  0.5625 0.15625 0  0.59375 0.15625 0  0.625 0.15625 0  0.65625 0.15625 0  0.6875 0.15625 0  0.71875 0.15625 0  0.75 0.15625 0  0.78125 0.15625 0  0.8125 0.15625 0  0.84375 0.15625 0  0.875 0.15625 0  0.90625 0.15625 0  0.9375 0.15625 0  0.96875 0.15625 0  1 0.15625 0  1.03125 0.15625 0  1.0625 0.15625 0  1.09375 0.15625 0  1.125 0.15625 0  1.15625 0.15625 0  1.1875 0.15625 0  1.21875 0.15625 0  1.25 0.15625 0  1.28125 0.15625 0  1.3125 0.15625 0  1.34375 0.15625 0  1.375 0.15625 0  1.40625 0.15625 0  1.4375 0.15625 0  1.46875 0.15625 0  1.5 0.15625 0  0 0.1875 0  0.03125 0.1875 0  0.0625 0.1875 0  0.09375 0.1875 0  0.125 0.1875 0  0.15625 0.1875 0  0.1875 0.1875 0  0.21875 0.1875 0  0.25 0.1875 0  0.28125 0.1875 0  0.3125 0.1875 0  0.34375 0.1875 0  0.375 0.1875 0  0.40625 0.1875 0  0.4375 0.1875 0  0.46875 0.1875 0  0.5 0.1875 0  0.53125 0.1875 0  0.5625 0.1875 0  0.59375 0.1875 0  0.625 0.1875 0  0.65625 0.1875 0  0.6875 0.1875 0  0.71875 0.1875 0  0.75 0.1875 0  0.78125 0.1875 0  0.8125 0.1875 0  0.84375 0.1875 0  0.875 0.1875 0  0.90625 0.1875 0  0.9375 0.1875 0  0.96875 0.1875 0  1 0.1875 0  1.03125 0.1875 0  1.0625 0.1875 0  1.09375 0.1875 0  1.125 0.1875 0  1.15625 0.1875 0  1.1875 0.1875 0  1.21875 0.1875 0  1.25 0.1875 0  1.28125 0.1875 0  1.3125 0.1875 0  1.34375 0.1875 0  1.375 0.1875 0  1.40625 0.1875 0  1.4375 0.1875 0  1.46875 0.1875 0  1.5 0.1875 0  0 0.21875 0  0.03125 0.21875 0  0.0625 0.21875 0  0.09375 0.21875 0  0.125 0.21875 0  0.15625 0.21875 0  0.1875 0.21875 0  0.21875 0.21875 0  0.25 0.21875 0  0.28125 0.21875 0  0.3125 0.21875 0  0.34375 0.21875 0  0.375 0.21875 0  0.40625 0.21875 0  0.4375 0.21875 0  0.46875 0.21875 0  0.5 0.21875 0  0.53125 0.21875 0  0.5625 0.21875 0  0.59375 0.21875 0  0.625 0.21875 0  0.65625 0.21875 0  0.6875 0.21875 0  0.71875 0.21875 0  0.75 0.21875 0  0.78125 0.21875 0  0.8125 0.21875 0  0.84375 0.21875 0  0.875 0.21875 0  0.90625 0.21875 0  0.9375 0.21875 0  0.96875 0.21875 0  1 0.21875 0  1.03125 0.21875 0  1.0625 0.21875 0  1.09375 0.21875 0  1.125 0.21875 0  1.15625 0.21875 0  1.1875 0.21875 0  1.21875 0.21875 0  1.25 0.21875 0  1.28125 0.21875 0  1.3125 0.21875 0  1.34375 0.21875 0  1.375 0.21875 0  1.40625 0.21875 0  1.4375 0.21875 0  1.46875 0.21875 0  1.5 0.21875 0  0 0.25 0  0.03125 0.25 0  0.0625 0.25 0  0.09375 0.25 0  0.125 0.25 0  0.15625 0.25 0  0.1875 0.25 0  0.21875 0.25 0  0.25 0.25 0  0.28125 0.25 0  0.3125 0.25 0  0.34375 0.25 0  0.375 0.25 0  0.40625 0.25 0  0.4375 0.25 0  0.46875 0.25 0  0.5 0.25 0  0.53125 0.25 0  0.5625 0.25 0  0.59375 0.25 0  0.625 0.25 0  0.65625 0.25 0  0.6875 0.25 0  0.71875 0.25 0  0.75 0.25 0  0.78125 0.25 0  0.8125 0.25 0  0.84375 0.25 0  0.875 0.25 0  0.90625 0.25 0  0.9375 0.25 0  0.96875 0.25 0  1 0.25 0  1.03125 0.25 0  1.0625 0.25 0  1.09375 0.25 0  1.125 0.25 0  1.15625 0.25 0  1.1875 0.25 0  1.21875 0.25 0  1.25 0.25 0  1.28125 0.25 0  1.3125 0.25 0  1.34375 0.25 0  1.375 0.25 0  1.40625 0.25 0  1.4375 0.25 0  1.46875 0.25 0  1.5 0.25 0  0 0.28125 0  0.03125 0.28125 0  0.0625 0.28125 0  0.09375 0.28125 0  0.125 0.28125 0  0.15625 0.28125 0  0.1875 0.28125 0  0.21875 0.28125 0  0.25 0.28125 0  0.28125 0.28125 0  0.3125 0.28125 0  0.34375 0.28125 0  0.375 0.28125 0  0.40625 0.28125 0  0.4375 0.28125 0  0.46875 0.28125 0  0.5 0.28125 0  0.53125 0.28125 0  0.5625 0.28125 0  0.59375 0.28125 0  0.625 0.28125 0  0.65625 0.28125 0  0.6875 0.28125 0  0.71875 0.28125 0  0.75 0.28125 0  0.78125 0.28125 0  0.8125 0.28125 0  0.84375 0.28125 0  0.875 0.28125 0  0.90625 0.28125 0  0.9375 0.28125 0  0.96875 0.28125 0  1 0.28125 0  1.03125 0.28125 0  1.0625 0.28125 0  1.09375 0.28125 0  1.125 0.28125 0  1.15625 0.28125 0  1.1875 0.28125 0  1.21875 0.28125 0  1.25 0.28125 0  1.28125 0.28125 0  1.3125 0.28125 0  1.34375 0.28125 0  1.375 0.28125 0  1.40625 0.28125 0  1.4375 0.28125 0  1.46875 0.28125 0  1.5 0.28125 0  0 0.3125 0  0.03125 0.3125 0  0.0625 0.3125 0  0.09375 0.3125 0  0.125 0.3125 0  0.15625 0.3125 0  0.1875 0.3125 0  0.21875 0.3125 0  0.25 0.3125 0  0.28125 0.3125 0  0.3125 0.3125 0  0.34375 0.3125 0  0.375 0.3125 0  0.40625 0.3125 0  0.4375 0.3125 0  0.46875 0.3125 0  0.5 0.3125 0  0.53125 0.3125 0  0.5625 0.3125 0  0.59375 0.3125 0  0.625 0.3125 0  0.65625 0.3125 0  0.6875 0.3125 0  0.71875 0.3125 0  0.75 0.3125 0  0.78125 0.3125 0  0.8125 0.3125 0  0.84375 0.3125 0  0.875 0.3125 0  0.90625 0.3125 0  0.9375 0.3125 0  0.96875 0.3125 0  1 0.3125 0  1.03125 0.3125 0  1.0625 0.3125 0  1.09375 0.3125 0  1.125 0.3125 0  1.15625 0.3125 0  1.1875 0.3125 0  1.21875 0.3125 0  1.25 0.3125 0  1.28125 0.3125 0  1.3125 0.3125 0  1.34375 0.3125 0  1.375 0.3125 0  1.40625 0.3125 0  1.4375 0.3125 0  1.46875 0.3125 0  1.5 0.3125 0  0 0.34375 0  0.03125 0.34375 0  0.0625 0.34375 0  0.09375 0.34375 0  0.125 0.34375 0  0.15625 0.34375 0  0.1875 0.34375 0  0.21875 0.34375 0  0.25 0.34375 0  0.28125 0.34375 0  0.3125 0.34375 0  0.34375 0.34375 0  0.375 0.34375 0  0.40625 0.34375 0  0.4375 0.34375 0  0.46875 0.34375 0  0.5 0.34375 0  0.53125 0.34375 0  0.5625 0.34375 0  0.59375 0.34375 0  0.625 0.34375 0  0.65625 0.34375 0  0.6875 0.34375 0  0.71875 0.34375 0  0.75 0.34375 0  0.78125 0.34375 0  0.8125 0.34375 0  0.84375 0.34375 0  0.875 0.34375 0  0.90625 0.34375 0  0.9375 0.34375 0  0.96875 0.34375 0  1 0.34375 0  1.03125 0.34375 0  1.0625 0.34375 0  1.09375 0.34375 0  1.125 0.34375 0  1.15625 0.34375 0  1.1875 0.34375 0  1.21875 0.34375 0  1.25 0.34375 0  1.28125 0.34375 0  1.3125 0.34375 0  1.34375 0.34375 0  1.375 0.34375 0  1
[...]
<PointData  Scalars="f_33"> 
<DataArray  type="Float64"  Name="f_33"  format="ascii">2.0331993977655560e-05  1.8859383237210389e-05  1.6381380795532674e-05  1.3836716561862385e-05  1.1408776966027601e-05  9.1279325590292806e-06  7.0021282311762200e-06  5.0306935320425717e-06  3.2089798243322874e-06  1.5310269438487798e-06  -9.3818502225946298e-09  -1.4183675057367679e-06  -2.7018525990276624e-06  -3.8655229660935872e-06  -4.9147980960217016e-06  -5.8547997735922786e-06  -6.6903195770754134e-06  -7.4257865653545489e-06  -8.0652351765230733e-06  -8.6122721961821774e-06  -9.0700411668585721e-06  -9.4411829549016659e-06  -9.7277923792014294e-06  -9.9313726340081094e-06  -1.0052791220108047e-05  -1.0092242547707026e-05  -1.0049222655612772e-05  -9.9225203420340064e-06  -9.7102266868221186e-06  -9.4097621767797642e-06  -9.0179182253600441e-06  -8.5309084646012292e-06  -7.9444248689239653e-06  -7.2536945490658095e-06  -6.4535339389317314e-06  -5.5383986834559542e-06  -4.5024265444469785e-06  -3.3394733407870099e-06  -2.0431311489200471e-06  -6.0673177743471596e-07  9.7669885463415809e-07  2.7145570328201670e-06  4.6144509204313688e-06  6.6854710987803754e-06  8.9314167893446090e-06  1.1366296523153731e-05  1.4019596569614461e-05  1.6727611945394569e-05  1.7772444393709035e-05  2.0712181848534783e-05  1.9157242009311350e-05  1.6415714702527389e-05  1.3767614922624260e-05  1.1309189946873276e-05  9.0206434614849345e-06  6.8943183001909027e-06  4.9256688876201200e-06  3.1082239480145328e-06  1.4351383300178884e-06  -1.0024545374066841e-07  -1.5042682966115518e-06  -2.7829677727360164e-06  -3.9420951748197360e-06  -4.9871112418782136e-06  -5.9231662333973204e-06  -6.7550730477051000e-06  -7.4872782048476551e-06  -8.1238320882630007e-06  -8.6683577248439034e-06  -9.1240164559012434e-06  -9.4934690059561104e-06  -9.7788316402166904e-06  -9.9816290960745837e-06  -1.0102748239117230e-05  -1.0142398122510167e-05  -1.0100082539163153e-05  -9.9745899009640086e-06  -9.7640026588827321e-06  -9.4657253362060216e-06  -9.0765275380318747e-06  -8.5925967593281087e-06  -8.0095955418468595e-06  -7.3227183893328491e-06  -6.5267448539795026e-06  -5.6160864803640882e-06  -4.5848242335616826e-06  -3.4267334469669747e-06  -2.1352827118940731e-06  -7.0359726866995496e-07  8.7565770915568947e-07  2.6105098967613193e-06  4.5097411045102952e-06  6.5842862334031294e-06  8.8423747147963564e-06  1.1309854313078843e-05  1.4035728732796546e-05  1.6942235818694329e-05  1.8355906580281765e-05  2.1451916687974272e-05  1.9733555651310424e-05  1.6632852556825189e-05  1.3778033370057696e-05  1.1215950223716427e-05  8.8764874853954931e-06  6.7237283449643233e-06  4.7427630862081065e-06  2.9210888692475251e-06  1.2485101297186674e-06  -2.8358486974208195e-07  -1.6827109611973501e-06  -2.9556322660575737e-06  -4.1085668043626514e-06  -5.1472878479368662e-06  -6.0771636644315569e-06  -6.9031654958935792e-06  -7.6298602801619446e-06  -8.2613955610938026e-06  -8.8014786784168616e-06  -9.2533495464273941e-06  -9.6197454971582755e-06  -9.9028575680893382e-06  -1.0104279970138205e-05  -1.0224957548055069e-05  -1.0265138619984311e-05  -1.0224341367726454e-05  -1.0101340300331700e-05  -9.8941756483145531e-06  -9.6001841625525627e-06  -9.2160461390231741e-06  -8.7378415823192271e-06  -8.1611082753509403e-06  -7.4808957082012134e-06  -6.6918098673151000e-06  -5.7880446376976108e-06  -4.7633926883331124e-06  -3.6112260886728915e-06  -2.3244189764576739e-06  -8.9518200650503881e-07  6.8528104405754179e-07  2.4273747703225328e-06  4.3438226516739366e-06  6.4523524043979521e-06  8.7728679533054939e-06  1.1356443491755629e-05  1.4280007205017963e-05  1.7464542298267836e-05  1.9093164773140267e-05  2.2323589145951187e-05  2.0466786190171836e-05  1.7047621955447611e-05  1.3935204857930774e-05  1.1203397165974519e-05  8.7605567442958113e-06  6.5444772831688218e-06  4.5263278124476703e-06  2.6839775961998435e-06  1.0013705267553207e-06  -5.3384635937917812e-07  -1.9316268769132243e-06  -3.2003519029307673e-06  -4.3473351657183867e-06  -5.3791103133898888e-06  -6.3015861600283965e-06  -7.1201279009039008e-06  -7.8395981541132790e-06  -8.4643753715367821e-06  -8.9983570985170544e-06  -9.4449496418877667e-06  -9.8070429470556894e-06  -1.0086969660360994e-05  -1.0286450220556113e-05  -1.0406530398558083e-05  -1.0447521953255221e-05  -1.0408958608248806e-05  -1.0289577067079007e-05  -1.0087326951226330e-05  -9.7994066719488953e-06  -9.4223168448186473e-06  -8.9519204394322730e-06  -8.3834991843228016e-06  -7.7117976726676301e-06  -6.9310478577702516e-06  -6.0349664995364899e-06  -5.0167127446178100e-06  -3.8687861288496831e-06  -2.5828202006029097e-06  -1.1492158851450369e-06  4.4351397262896044e-07  2.2098170520591111e-06  4.1684983768481485e-06  6.3464463090863542e-06  8.7765317663179626e-06  1.1526997691490297e-05  1.4680582449172313e-05  1.8122181686082395e-05  1.9905130924928847e-05  2.3208532173965565e-05  2.1258027795228056e-05  1.7592602930090200e-05  1.4231582377286613e-05  1.1302185797129832e-05  8.7189234920750392e-06  6.4063823503300327e-06  4.3244803018347453e-06  2.4412466806302471e-06  7.3377672909629011e-07  -8.1515756885491212e-07  -2.2189493368297953e-06  -3.4884071727589323e-06  -4.6325759091352026e-06  -5.6592377890954713e-06  -6.5752140045704315e-06  -7.3865461780530403e-06  -8.0986078259249335e-06  -8.7161740168278598e-06  -9.2434629895526881e-06  -9.6841539525864113e-06  -1.0041379893075731e-05  -1.0317693215014650e-05  -1.0515005673633848e-05  -1.0634511321680231e-05  -1.0676608619129121e-05  -1.0640840910162476e-05  -1.0525870416079502e-05  -1.0329490970559220e-05  -1.0048673370358665e-05  -9.6796290651318097e-06  -9.2178752561531922e-06  -8.6582862969558665e-06  -7.9951199695524711e-06  -7.2220092100406658e-06  -6.3319089962414251e-06  -5.3169804156006394e-06  -4.1683836777826760e-06  -2.8759225775504765e-06  -1.4274700365046250e-06  1.9196655831991338e-07  2.0016578790666598e-06  4.0268752467666696e-06  6.3027212948897236e-06  8.8708104073233353e-06  1.1805326993399608e-05  1.5179330534346985e-05  1.8836363569713737e-05  2.0730551194431047e-05  2.4062159986721114e-05  2.2046312556402721e-05  1.8195582805224048e-05  1.4619518039855767e-05  1.1495972155840621e-05  8.7574477928432526e-06  6.3279361844407121e-06  4.1617831078878552e-06  2.2197395451329646e-06  4.7274873605916728e-07  -1.1014118896605480e-06  -2.5199828715376150e-06  -3.7966826123753030e-06  -4.9427475342706948e-06  -5.9676091476714071e-06  -6.8793334667144117e-06  -7.6849067054902974e-06  -8.3904260167112126e-06  -9.0012309745711368e-06  -9.5219945681907495e-06  -9.9567796283929135e-06  -1.0309058044514057e-05  -1.0581687300937552e-05  -1.0776843606905733e-05  -1.0895922912986172e-05  -1.0939434723848687e-05  -1.0906919892933387e-05  -1.0796916714991263e-05  -1.0606982031725141e-05  -1.0333754755400245e-05  -9.9730371188329919e-06  -9.5198673594858750e-06  -8.9685632312905214e-06  -8.3127231009362988e-06  -7.5451750966047346e-06  -6.6578635906600467e-06  -5.6416530122801256e-06  -4.4860174101946746e-06  -3.1785552066818512e-06  -1.7042622906565324e-06  -4.4441989562609986e-08  1.8247994308523054e-06  3.9341398595418436e-06  6.3242021038848623e-06  9.0400756004952649e-06  1.2153753869105335e-05  1.5721994385779648e-05  1.9550611705855075e-05  2.1523674300981039e-05  2.4862773245979599e-05  2.2799419941627875e-05  1.8808260273105362e-05  1.5054651416170116e-05  1.1755386066086914e-05  8.8635228909289230e-06  6.3095248583263716e-06  4.0473364730020505e-06  2.0338674819956112e-06  2.3559774935041849e-07  -1.3739721063368867e-06  -2.8157409579419331e-06  -4.1064211593900811e-06  -5.2596434904586959e-06  -6.2867268964426539e-06  -7.1972142749772882e-06  -7.9992430449886580e-06  -8.6998084541938313e-06  -9.3049575747290314e-06  -9.8199352218403833e-06  -1.0249287506702256e-05  -1.0596916310115822e-05  -1.0866071752132641e-05  -1.1059275346881724e-05  -1.1178186877675856e-05  -1.1223453743190401e-05  -1.1194594932998799e-05  -1.1089959849851261e-05  -1.0906769698608149e-05  -1.0641215427402983e-05  -1.0288569074856744e-05  -9.8432686092213376e-06  -9.2989507090465386e-06  -8.6484199023255423e-06  -7.8835486525187339e-06  -6.9951013416288329e-06  -5.9724646188595624e-06  -4.8032554589874170e-06  -3.4727532318949325e-06  -1.9631076693742218e-06  -2.5224275780084666e-07  1.6875050574148356e-06  3.8905117110478447e-06  6.4000057506840439e-06  9.2604204878434167e-06  1.2537156209523475e-05  1.6269606884446641e-05  2.0233112212587954e-05  2.2263512991958615e-05  2.5599215650010402e-05  2.3500064421767463e-05  1.9400826159250726e-05  1.5502913590337179e-05  1.2051316402381472e-05  9.0176648929089479e-06  6.3414842130142238e-06  3.9796856909858893e-06  1.8882715565638232e-06  3.1156167455492538e-08  -1.6212988077698869e-06  -3.0930603121080739e-06  -4.4035909156618214e-06  -5.5688704569112166e-06  -6.6021652265195615e-06  -7.5146024308097251e-06  -8.3155910201915841e-06  -9.0131383967608957e-06  -9.6140982272905319e-06  -1.0124370978056637e-05  -1.0549060929118171e-05  -1.0892576318659466e-05  -1.1158645359992314e-05  -1.1350225057003513e-05  -1.1469313870263442e-05  -1.1516728668517587e-05  -1.1491936441967951e-05  -1.1393009951623924e-05  -1.1216713466996068e-05  -1.0958663968498706e-05  -1.0613491650033980e-05  -1.0174941485977031e-05  -9.6358896378320556e-06  -8.9882722641223117e-06  -8.2229319540768260e-06  -7.3293830624411460e-06  -6.2954848057109740e-06  -5.1070010335957863e-06  -3.7470061518198451e-06  -2.1951152015088126e-06  -4.2650485542143573e-07  1.5891537188719323e-06  3.8882200010660122e-06  6.5141972510828844e-06  9.5083394570505369e-06  1.2927831927999847e-05  1.6796378205631950e-05  2.0866108228861409e-05  2.2939529234858708e-05  2.6265346650153678e-05  2.4138548108859191e-05  1.9954913258550668e-05  1.5940295745011102e-05  1.2359820550724747e-05  9.2003084710453617e-06  6.4104674222783304e-06  3.9518158714067144e-06  1.7814104751165352e-06  -1.3778505429334611e-07  -1.8373715306544429e-06  -3.3436277892444647e-06  -4.6783243876943792e-06  -5.8595619243063897e-06  -6.9024629832577967e-06  -7.8197287203802008e-06  -8.6220708462173524e-06  -9.3185557667925703e-06  -9.9168905186568668e-06  -1.0423672147932381e-05  -1.0844602340208203e-05  -1.1184647848533505e-05  -1.1448094680976622e-05  -1.1638439824675271e-05  -1.1758117918767427e-05  -1.1808155627913210e-05  -1.1787918714186006e-05  -1.1695077126026088e-05  -1.1525783289894876e-05  -1.1274945831030295e-05  -1.0936463717815054e-05  -1.0503342924658556e-05  -9.9676820652983986e-06  -9.3205473811962700e-06  -8.5517608937702032e-06  -7.6496145310110232e-06  -6.6005067928236403e-06  -5.3884897084639899e-06  -3.9947001327141268e-06  -2.3966790103690634e-06  -5.6758518072132129e-07  1.5245157674588688e-06  3.9165841184516016e-06  6.6508629781880340e-06  9.7642521319326586e-06  1.3305749462672260e-05  1.7285966287096732e-05  2.1439845171619626e-05  2.3546388358961764e-05  2.6857613989288713e-05  2.4709169809323307e-05  2.0458993658770157e-05  1.6350258667966344e-05  1.2662505298828673e-05  9.3944023426674192e-06  6.5028619083527269e-06  3.9544391864999996e-06  1.7083107108456984e-06  -2.7236354086035467e-07  -2.0201590520676625e-06  -3.5629248259718284e-06  -4.9242253857981865e-06  -6.1239517942973573e-06  -7.1788880033206373e-06  -8.1032062497033532e-06  -8.9088757445350542e-06  -9.6060073624173359e-06  -1.0203157992780168e-05  -1.0707617274494663e-05  -1.1125680106741743e-05  -1.1462889479864193e-05  -1.1724157904157680e-05  -1.1913650730354761e-05  -1.2034379382082612e-05  -1.2087637388673587e-05  -1.2072602648493933e-05  -1.1986346967946390e-05  -1.1824204827205924e-05  -1.1580239861108248e-05  -1.1247573858025964e-05  -1.0818496612349197e-05  -1.0284388793270306e-05  -9.6355218757890114e-06  -8.8607833694365998e-06  -7.9473501021502247e-06  -6.8803108013079165e-06  -5.6422321095185225e-06  -4.2126540570894408e-06  -2.5675388527560636e-06  -6.7870722700035450e-07  1.4865226432828380e-06  3.9647605551219260e-06  6.7961652977006784e-06  1.0013023390043993e-05  1.3656983663854275e-05  1.7728200522773479e-05  2.1949022680922986e-05  2.4081500185206810e-05  2.7373870498745149e-05  2.5208419403760632e-05  2.0905655069935837e-05  1.6721423784799063e-05  1.2945664982995124e-05  9.5860654376719329e-06  6.6063947093617603e-06  3.9779751096289094e-06  1.6625118580524138e-06  -3.7595348795520310e-07  -2.1702539181659466e-06  -3.7491838852192383e-06  -5.1376085743338865e-06  -6.3568471170749154e-06  -7.4250937683869210e-06  -8.3578272552408379e-06  -9.1681720381547802e-06  -9.8672210909260698e-06  -1.0464338127892300e-05  -1.0967463036679391e-05  -1.1383432826910234e-05  -1.1718337460763240e-05  -1.1977759181148221e-05  -1.2166698913900934e-05  -1.2288972166662061e-05  -1.2346228068782193e-05  -1.2337291531244370e-05  -1.2258314268333698e-05  -1.2103535247253492e-05  -1.1866058207310065e-05  -1.1538263872649998e-05  -1.1111844775353331e-05  -1.0577607893437791e-05  -9.9251737129635108e-06  -9.1426387287022752e-06  -8.2162233581355088e-06  -7.1299034050413035e-06  -5.8650207832024149e-06  -4.3998672385293142e-06  -2.7092784784773947e-06  -7.6428879466228600e-07  1.4679239452334591e-06  4.0230677293313684e-06  6.9389224829490392e-06  1.0243443138000680e-05  1.3972073472170521e-05  1.8116835639831312e-05  2.2390879490558537e-05  2.4543815357912286e-05  2.7812774078246686e-05  2.5634056337081378e-05  2.1290010196948247e-05  1.7045905284700082e-05  1.3199221863040743e-05  9.7643999236751512e-06  6.7106964992344944e-06  4.0135883803858682e-06  1.6372917880056487e-06  -4.5295622529265461e-07  -2.2897932533495608e-06  -3.9024903599408475e-06  -5.3167926904257959e-06  -6.5551005562241826e-06  -7.6367488065822880e-06  -8.5783230584896665e-06  -9.3939621372293998e-06  -1.0095645684100061e-05  -1.0693477123405364e-05  -1.1195982102049601e-05  -1.1610447910718424e-05  -1.1943422605529136e-05  -1.2201130879634593e-05  -1.2389636681133143e-05  -1.2513966602187499e-05  -1.2576266227311378e-05  -1.2574671480842709e-05  -1.2503866970422996e-05  -1.2356644567172545e-05  -1.2125124369165774e-05  -1.1801128936352934e-05  -1.1375993590314849e-05  -1.0840172159398246e-05  -1.0182821437847222e-05  -9.3914168998792990e-06  -8.4513994091151880e-06  -7.3458386391980839e-06  -6.0551066766686350e-06  -4.5565601342144689e-06  -2.8242764937637759e-06  -8.2890203712614512e-07  1.4621562295968081e-06  4.0834707574099771e-06  7.0705011494743682e-06  1.0447432431168517e-05  1.4244691091289404e-05  1.8448103834460490e-05  2.2764123169319678e-05  2.4933158927632492e-05  2.8173465912206005e-05  2.5984615260560883e-05  2.1608774189330371e-05  1.7318202506518779e-05  1.3415827818571310e-05  9.9210555794723349e-06  6.8073736013931060e-06  4.0536647717514199e-06  1.6263852765154464e-06  -5.0798453119287019e-07  -2.3816538970812605e-06  -4.0240560122936225e-06  -5.4614871532138568e-06  -6.7171233019523752e-06  -7.8111757446996500e-06  -8.7611205777977054e-06  -9.5819432254459672e-06  -1.0286389757655498e-05  -1.0885223798207801e-05  -1.1387493574802799e-05  -1.1800832977044839e-05  -1.2132104546762940e-05  -1.2387954353114713e-05  -1.2575837382125049e-05  -1.2702752198443189e-05  -1.2771533311809392e-05  -1.2778938295572753e-05  -1.2717275496087987e-05  -1.2577537389384040e-05  -1.2351082668295047e-05  -1.2029585043215987e-05  -1.1604377559809119e-05  -1.1065813955352261e-05  -1.0402771285011959e-05  -9.6022619702259048e-06  -8.6491116115276623e-06  -7.5256741045948228e-06  -6.2115767960501893e-06  -4.6834984612058167e-06  -2.9150313793265020e-06  -8.7668725228510698e-07  1.4637241365635814e-06  4.1396350112722459e-06  7.1844593640253296e-06  1.0619295323633608e-05  1.4470669571751809e-05  1.8719797979260972e-05  2.3068305605939284e-05  2.5249833423724170e-05  2.8455390188631203e-05  2.6259128134393826e-05  2.1859722997909882e-05  1.7534484155027747e-05  1.3590190332473334e-05  1.0049786500401769e-05  6.8898803064208181e-06  4.0919824039384047e-06  1.6243794832883566e-06  -5.4533390235820266e-07  -2.4488727071140324e-06  -4.1156504585199562e-06  -5.5722765786720880e-06  -6.8424487714355002e-06  -7.9470097550491349e-06  -8.9041042301693019e-06  -9.7293748589497345e-06  -1.0436186179345957e-05  -1.1035864332581593e-05  -1.1537927758552999e-05  -1.1950303097429771e-05  -1.2280040895282900e-05  -1.2533556791651019e-05  -1.2720228437669697e-05  -1.2850304961239267e-05  -1.2927457803124355e-05  -1.2945817890786391e-05  -1.2893928979212884e-05  -1.2760879781448324e-05  -1.2537985391096814e-05  -1.2217426282224050e-05  -1.1790907749452187e-05  -1.1248874691058383e-05  -1.0580044851669661e-05  -9.7710810325172324e-06  -8.8063280066518147e-06  -7.6675875149899116e-06  -6.3339311704483640e-06  -4.7815603832103421e-06  -2.9837689189892890e-06  -9.1106794104220311e-07  1.4683029827501476e-06  4.1867847305859915e-06  7.2761427625192723e-06  1.0755106705159834e-05  1.4647316431470504e-05  1.8930680465849083e-05  2.3303431988619874e-05  2.5494355859996083e-05  2.8658191703086401e-05  2.6456964573548640e-05  2.2041372160741367e-05  1.7692133088812299e-05  1.3718598871071186e-05  1.0146085045355077e-05  6.9533399165612639e-06  4.1237391846099017e-06  1.6269215249296172e-06  -5.6864449670615357e-07  -2.4942321443233209e-06  -4.1791576934788560e-06  -5.6501852165722490e-06  -6.9313327454238262e-06  -8.0438568794577181e-06  -9.0063545263424278e-06  -9.8349219587407844e-06  -1.0543360290031818e-05  -1.1143411247997363e-05  -1.1644978312772868e-05  -1.2056329382237842e-05  -1.2384754672059843e-05  -1.2635273374102718e-05  -1.2820053391025234e-05  -1.2953865883038926e-05  -1.3041138432068921e-05  -1.3072081020121233e-05  -1.3029478206476057e-05  -1.2901076744606403e-05  -1.2679603245546133e-05  -1.2358414623201020e-05  -1.1929755648437175e-05  -1.1384181109116702e-05  -1.0710272953489855e-05  -9.8944120390438626e-06  -8.9205747815092697e-06  -7.7701567372419378e-06  -6.4218363589041450e-06  -4.8514942677021925e-06  -3.0322464044437721e-06  -9.3464993335733450e-07  1.4726996826522346e-06  4.2214971952275116e-06  7.3423204033659364e-06  1.0852244642559049e-05  1.4772936786839178e-05  1.9080095052724057e-05  2.3469706097157975e-05  2.5667277838638926e-05  2.8781658883321165e-05  2.6577740925012543e-05  2.2152787074106476e-05  1.7789462508648915e-05  1.3798608089283106e-05  1.0206911130188761e-05  6.9943814882081288e-06  4.1455254806786458e-06  1.6308247494062391e-06  -5.8068370687930594e-07  -2.5199622000956458e-06  -4.2162271074809687e-06  -5.6963014997175610e-06  -6.9843699562109149e-06  -8.1019182264492969e-06  -9.0677988655631357e-06  -9.8983645237588552e-06  -1.0607657444030659e-05  -1.1207640234324064e-05  -1.1708435496747268e-05  -1.2118649619700194e-05  -1.2445889609840226e-05  -1.2693188942290042e-05  -1.2876511345913813e-05  -1.3013899254744308e-05  -1.3110270866321714e-05  -1.3153686197185569e-05  -1.3118047630975312e-05  -1.2991079111275710e-05  -1.2768971993351882e-05  -1.2446283465237637e-05  -1.2015530160244235e-05  -1.1467235378322604e-05  -1.0789828731744869e-05  -9.9694790588881810e-06  -8.9899175809658140e-06  -7.8322842587769755e-06  -6.4750185456096855e-06  -4.8938119522007940e-06  -3.0616812302797641e-06  -9.4921974099651370e-07  1.4747579847421515e-06  4.2415018065778551e-06  7.3808932525005300e-06  1.0909051526327000e-05  1.4846508580062778e-05  1.9167711243073492e-05  2.3567361606137947e-05  2.5769061683838704e-05  2.8825694086371798e-05  2.6621271131765122e-05  2.2193475111939394e-05  1.7825546824353555e-05  1.3828838910735903e-05  1.0230510442109955e-05  7.0110171549475906e-06  4.1552860306021644e-06  1.6341222630945747e-06  -5.8320783580809053e-07  -2.5275308683779805e-06  -4.2280066112724401e-06  -5.7114631543420796e-06  -7.0021332255836302e-06  -8.1215770334693557e-06  -9.0887339131304282e-06  -9.9200448443928204e-06  -1.0629633201317947e-05  -1.1229530903606136e-05  -1.1729936328993405e-05  -1.2139577576254966e-05  -1.2466006438360008e-05  -1.2711629695943570e-05  -1.2893636178115941e-05  -1.303351