<?xml version="1.0"?>
<VTKFile type="UnstructuredGrid"  version="0.1"  >
<UnstructuredGrid>
<Piece  NumberOfPoints="1617" NumberOfCells="3072">
<Points>
<DataArray  type="Float64"  NumberOfComponents="3"  format="ascii">0 0 0  0.03125 0 0  0.0625 0 0  0.09375 0 0  0.125 0 0  0.15625 0 0  0.1875 0 0  0.21875 0 0  0.25 0 0  0.28125 0 0  0.3125 0 0  0.34375 0 0  0.375 0 0  0.40625 0 0  0.4375 0 0  0.46875 0 0  0.5 0 0  0.53125 0 0  0.5625 0 0  0.59375 0 0  0.625 0 0  0.65625 0 0  0.6875 0 0  0.71875 0 0  0.75 0 0  0.78125 0 0  0.8125 0 0  0.84375 0 0  0.875 0 0  0.90625 0 0  0.9375 0 0  0.96875 0 0  1 0 0  1.03125 0 0  1.0625 0 0  1.09375 0 0  1.125 0 0  1.15625 0 0  1.1875 0 0  1.21875 0 0  1.25 0 0  1.28125 0 0  1.3125 0 0  1.34375 0 0  1.375 0 0  1.40625 0 0  1.4375 0 0  1.46875 0 0  1.5 0 0  0 0.03125 0  0.03125 0.03125 0  0.0625 0.03125 0  0.09375 0.03125 0  0.125 0.03125 0  0.15625 0.03125 0  0.1875 0.03125 0  0.21875 0.03125 0  0.25 0.03125 0  0.28125 0.03125 0  0.3125 0.03125 0  0.34375 0.03125 0  0.375 0.03125 0  0.40625 0.03125 0  0.4375 0.03125 0  0.46875 0.03125 0  0.5 0.03125 0  0.53125 0.03125 0  0.5625 0.03125 0  0.59375 0.03125 0  0.625 0.03125 0  0.65625 0.03125 0  0.6875 0.03125 0  0.71875 0.03125 0  0.75 0.03125 0  0.78125 0.03125 0  0.8125 0.03125 0  0.84375 0.03125 0  0.875 0.03125 0  0.90625 0.03125 0  0.9375 0.03125 0  0.96875 0.03125 0  1 0.03125 0  1.03125 0.03125 0  1.0625 0.03125 0  1.09375 0.03125 0  1.125 0.03125 0  1.15625 0.03125 0  1.1875 0.03125 0  1.21875 0.03125 0  1.25 0.03125 0  1.28125 0.03125 0  1.3125 0.03125 0  1.34375 0.03125 0  1.375 0.03125 0  1.40625 0.03125 0  1.4375 0.03125 0  1.46875 0.03125 0  1.5 0.03125 0  0 0.0625 0  0.03125 0.0625 0  0.0625 0.0625 0  0.09375 0.0625 0  0.125 0.0625 0  0.15625 0.0625 0  0.1875 0.0625 0  0.21875 0.0625 0  0.25 0.0625 0  0.28125 0.0625 0  0.3125 0.0625 0  0.34375 0.0625 0  0.375 0.0625 0  0.40625 0.0625 0  0.4375 0.0625 0  0.46875 0.0625 0  0.5 0.0625 0  0.53125 0.0625 0  0.5625 0.0625 0  0.59375 0.0625 0  0.625 0.0625 0  0.65625 0.0625 0  0.6875 0.0625 0  0.71875 0.0625 0  0.75 0.0625 0  0.78125 0.0625 0  0.8125 0.0625 0  0.84375 0.0625 0  0.875 0.0625 0  0.90625 0.0625 0  0.9375 0.0625 0  0.96875 0.0625 0  1 0.0625 0  1.03125 0.0625 0  1.0625 0.0625 0  1.09375 0.0625 0  1.125 0.0625 0  1.15625 0.0625 0  1.1875 0.0625 0  1.21875 0.0625 0  1.25 0.0625 0  1.28125 0.0625 0  1.3125 0.0625 0  1.34375 0.0625 0  1.375 0.0625 0  1.40625 0.0625 0  1.4375 0.0625 0  1.46875 0.0625 0  1.5 0.0625 0  0 0.09375 0  0.03125 0.09375 0  0.0625 0.09375 0  0.09375 0.09375 0  0.125 0.09375 0  0.15625 0.09375 0  0.1875 0.09375 0  0.21875 0.09375 0  0.25 0.09375 0  0.28125 0.09375 0  0.3125 0.09375 0  0.34375 0.09375 0  0.375 0.09375 0  0.40625 0.09375 0  0.4375 0.09375 0  0.46875 0.09375 0  0.5 0.09375 0  0.53125 0.09375 0  0.5625 0.09375 0  0.59375 0.09375 0  0.625 0.09375 0  0.65625 0.09375 0  0.6875 0.09375 0  0.71875 0.09375 0  0.75 0.09375 0  0.78125 0.09375 0  0.8125 0.09375 0  0.84375 0.09375 0  0.875 0.09375 0  0.90625 0.09375 0  0.9375 0.09375 0  0.96875 0.09375 0  1 0.09375 0  1.03125 0.09375 0  1.0625 0.09375 0  1.09375 0.09375 0  1.125 0.09375 0  1.15625 0.09375 0  1.1875 0.09375 0  1.21875 0.09375 0  1.25 0.09375 0  1.28125 0.09375 0  1.3125 0.09375 0  1.34375 0.09375 0  1.375 0.09375 0  1.40625 0.09375 0  1.4375 0.09375 0  1.46875 0.09375 0  1.5 0.09375 0  0 0.125 0  0.03125 0.125 0  0.0625 0.125 0  0.09375 0.125 0  0.125 0.125 0  0.15625 0.125 0  0.1875 0.125 0  0.21875 0.125 0  0.25 0.125 0  0.28125 0.125 0  0.3125 0.125 0  0.34375 0.125 0  0.375 0.125 0  0.40625 0.125 0  0.4375 0.125 0  0.46875 0.125 0  0.5 0.125 0  0.53125 0.125 0  0.5625 0.125 0  0.59375 0.125 0  0.625 0.125 0  0.65625 0.125 0  0.6875 0.125 0  0.71875 0.125 0  0.75 0.125 0  0.78125 0.125 0  0.8125 0.125 0  0.84375 0.125 0  0.875 0.125 0  0.90625 0.125 0  0.9375 0.125 0  0.96875 0.125 0  1 0.125 0  1.03125 0.125 0  1.0625 0.125 0  1.09375 0.125 0  1.125 0.125 0  1.15625 0.125 0  1.1875 0.125 0  1.21875 0.125 0  1.25 0.125 0  1.28125 0.125 0  1.3125 0.125 0  1.34375 0.125 0  1.375 0.125 0  1.40625 0.125 0  1.4375 0.125 0  1.46875 0.125 0  1.5 0.125 0  0 0.15625 0  0.03125 0.15625 0  0.0625 0.15625 0  0.09375 0.15625 0  0.125 0.15625 0  0.15625 0.15625 0  0.1875 0.15625 0  0.21875 0.15625 0  0.25 0.15625 0  0.28125 0.15625 0  0.3125 0.15625 0  0.34375 0.15625 0  0.375 0.15625 0  0.40625 0.15625 0  0.4375 0.15625 0  0.46875 0.15625 0  0.5 0.15625 0  0.53125 0.15625 0  0.5625 0.15625 0  0.59375 0.15625 0  0.625 0.15625 0  0.65625 0.15625 0  0.6875 0.15625 0  0.71875 0.15625 0  0.75 0.15625 0  0.78125 0.15625 0  0.8125 0.15625 0  0.84375 0.15625 0  0.875 0.15625 0  0.90625 0.15625 0  0.9375 0.15625 0  0.96875 0.15625 0  1 0.15625 0  1.03125 0.15625 0  1.0625 0.15625 0  1.09375 0.15625 0  1.125 0.15625 0  1.15625 0.15625 0  1.1875 0.15625 0  1.21875 0.15625 0  1.25 0.15625 0  1.28125 0.15625 0  1.3125 0.15625 0  1.34375 0.15625 0  1.375 0.15625 0  1.40625 0.15625 0  1.4375 0.15625 0  1.46875 0.15625 0  1.5 0.15625 0  0 0.1875 0  0.03125 0.1875 0  0.0625 0.1875 0  0.09375 0.1875 0  0.125 0.1875 0  0.15625 0.1875 0  0.1875 0.1875 0  0.21875 0.1875 0  0.25 0.1875 0  0.28125 0.1875 0  0.3125 0.1875 0  0.34375 0.1875 0  0.375 0.1875 0  0.40625 0.1875 0  0.4375 0.1875 0  0.46875 0.1875 0  0.5 0.1875 0  0.53125 0.1875 0  0.5625 0.1875 0  0.59375 0.1875 0  0.625 0.1875 0  0.65625 0.1875 0  0.6875 0.1875 0  0.71875 0.1875 0  0.75 0.1875 0  0.78125 0.1875 0  0.8125 0.1875 0  0.84375 0.1875 0  0.875 0.1875 0  0.90625 0.1875 0  0.9375 0.1875 0  0.96875 0.1875 0  1 0.1875 0  1.03125 0.1875 0  1.0625 0.1875 0  1.09375 0.1875 0  1.125 0.1875 0  1.15625 0.1875 0  1.1875 0.1875 0  1.21875 0.1875 0  1.25 0.1875 0  1.28125 0.1875 0  1.3125 0.1875 0  1.34375 0.1875 0  1.375 0.1875 0  1.40625 0.1875 0  1.4375 0.1875 0  1.46875 0.1875 0  1.5 0.1875 0  0 0.21875 0  0.03125 0.21875 0  0.0625 0.21875 0  0.09375 0.21875 0  0.125 0.21875 0  0.15625 0.21875 0  0.1875 0.21875 0  0.21875 0.21875 0  0.25 0.21875 0  0.28125 0.21875 0  0.3125 0.21875 0  0.34375 0.21875 0  0.375 0.21875 0  0.40625 0.21875 0  0.4375 0.21875 0  0.46875 0.21875 0  0.5 0.21875 0  0.53125 0.21875 0  0.5625 0.21875 0  0.59375 0.21875 0  0.625 0.21875 0  0.65625 0.21875 0  0.6875 0.21875 0  0.71875 0.21875 0  0.75 0.21875 0  0.78125 0.21875 0  0.8125 0.21875 0  0.84375 0.21875 0  0.875 0.21875 0  0.90625 0.21875 0  0.9375 0.21875 0  0.96875 0.21875 0  1 0.21875 0  1.03125 0.21875 0  1.0625 0.21875 0  1.09375 0.21875 0  1.125 0.21875 0  1.15625 0.21875 0  1.1875 0.21875 0  1.21875 0.21875 0  1.25 0.21875 0  1.28125 0.21875 0  1.3125 0.21875 0  1.34375 0.21875 0  1.375 0.21875 0  1.40625 0.21875 0  1.4375 0.21875 0  1.46875 0.21875 0  1.5 0.21875 0  0 0.25 0  0.03125 0.25 0  0.0625 0.25 0  0.09375 0.25 0  0.125 0.25 0  0.15625 0.25 0  0.1875 0.25 0  0.21875 0.25 0  0.25 0.25 0  0.28125 0.25 0  0.3125 0.25 0  0.34375 0.25 0  0.375 0.25 0  0.40625 0.25 0  0.4375 0.25 0  0.46875 0.25 0  0.5 0.25 0  0.53125 0.25 0  0.5625 0.25 0  0.59375 0.25 0  0.625 0.25 0  0.65625 0.25 0  0.6875 0.25 0  0.71875 0.25 0  0.75 0.25 0  0.78125 0.25 0  0.8125 0.25 0  0.84375 0.25 0  0.875 0.25 0  0.90625 0.25 0  0.9375 0.25 0  0.96875 0.25 0  1 0.25 0  1.03125 0.25 0  1.0625 0.25 0  1.09375 0.25 0  1.125 0.25 0  1.15625 0.25 0  1.1875 0.25 0  1.21875 0.25 0  1.25 0.25 0  1.28125 0.25 0  1.3125 0.25 0  1.34375 0.25 0  1.375 0.25 0  1.40625 0.25 0  1.4375 0.25 0  1.46875 0.25 0  1.5 0.25 0  0 0.28125 0  0.03125 0.28125 0  0.0625 0.28125 0  0.09375 0.28125 0  0.125 0.28125 0  0.15625 0.28125 0  0.1875 0.28125 0  0.21875 0.28125 0  0.25 0.28125 0  0.28125 0.28125 0  0.3125 0.28125 0  0.34375 0.28125 0  0.375 0.28125 0  0.40625 0.28125 0  0.4375 0.28125 0  0.46875 0.28125 0  0.5 0.28125 0  0.53125 0.28125 0  0.5625 0.28125 0  0.59375 0.28125 0  0.625 0.28125 0  0.65625 0.28125 0  0.6875 0.28125 0  0.71875 0.28125 0  0.75 0.28125 0  0.78125 0.28125 0  0.8125 0.28125 0  0.84375 0.28125 0  0.875 0.28125 0  0.90625 0.28125 0  0.9375 0.28125 0  0.96875 0.28125 0  1 0.28125 0  1.03125 0.28125 0  1.0625 0.28125 0  1.09375 0.28125 0  1.125 0.28125 0  1.15625 0.28125 0  1.1875 0.28125 0  1.21875 0.28125 0  1.25 0.28125 0  1.28125 0.28125 0  1.3125 0.28125 0  1.34375 0.28125 0  1.375 0.28125 0  1.40625 0.28125 0  1.4375 0.28125 0  1.46875 0.28125 0  1.5 0.28125 0  0 0.3125 0  0.03125 0.3125 0  0.0625 0.3125 0  0.09375 0.3125 0  0.125 0.3125 0  0.15625 0.3125 0  0.1875 0.3125 0  0.21875 0.3125 0  0.25 0.3125 0  0.28125 0.3125 0  0.3125 0.3125 0  0.34375 0.3125 0  0.375 0.3125 0  0.40625 0.3125 0  0.4375 0.3125 0  0.46875 0.3125 0  0.5 0.3125 0  0.53125 0.3125 0  0.5625 0.3125 0  0.59375 0.3125 0  0.625 0.3125 0  0.65625 0.3125 0  0.6875 0.3125 0  0.71875 0.3125 0  0.75 0.3125 0  0.78125 0.3125 0  0.8125 0.3125 0  0.84375 0.3125 0  0.875 0.3125 0  0.90625 0.3125 0  0.9375 0.3125 0  0.96875 0.3125 0  1 0.3125 0  1.03125 0.3125 0  1.0625 0.3125 0  1.09375 0.3125 0  1.125 0.3125 0  1.15625 0.3125 0  1.1875 0.3125 0  1.21875 0.3125 0  1.25 0.3125 0  1.28125 0.3125 0  1.3125 0.3125 0  1.34375 0.3125 0  1.375 0.3125 0  1.40625 0.3125 0  1.4375 0.3125 0  1.46875 0.3125 0  1.5 0.3125 0  0 0.34375 0  0.03125 0.34375 0  0.0625 0.34375 0  0.09375 0.34375 0  0.125 0.34375 0  0.15625 0.34375 0  0.1875 0.34375 0  0.21875 0.34375 0  0.25 0.34375 0  0.28125 0.34375 0  0.3125 0.34375 0  0.34375 0.34375 0  0.375 0.34375 0  0.40625 0.34375 0  0.4375 0.34375 0  0.46875 0.34375 0  0.5 0.34375 0  0.53125 0.34375 0  0.5625 0.34375 0  0.59375 0.34375 0  0.625 0.34375 0  0.65625 0.34375 0  0.6875 0.34375 0  0.71875 0.34375 0  0.75 0.34375 0  0.78125 0.34375 0  0.8125 0.34375 0  0.84375 0.34375 0  0.875 0.34375 0  0.90625 0.34375 0  0.9375 0.34375 0  0.96875 0.34375 0  1 0.34375 0  1.03125 0.34375 0  1.0625 0.34375 0  1.09375 0.34375 0  1.125 0.34375 0  1.15625 0.34375 0  1.1875 0.34375 0  1.21875 0.34375 0  1.25 0.34375 0  1.28125 0.34375 0  1.3125 0.34375 0  1.34375 0.34375 0  1.375 0.34375 0  1
[...]
<PointData  Scalars="f_33"> 
<DataArray  type="Float64"  Name="f_33"  format="ascii">2.1435794784710376e-05  1.8915578099432041e-05  1.6723524430602049e-05  1.4626065378899421e-05  1.2634282274036286e-05  1.0744028309506212e-05  8.9562652988124632e-06  7.2725661064713104e-06  5.6932929695489828e-06  4.2175101898365614e-06  2.8433272579795441e-06  1.5682888825893143e-06  3.8966943806300871e-07  -6.9534431010573771e-07  -1.6895477970268998e-06  -2.5956574162686641e-06  -3.4162717279583431e-06  -4.1538428930036181e-06  -4.8106509122282696e-06  -5.3887752559130682e-06  -5.8900595231358831e-06  -6.3160661720290186e-06  -6.6680207635945853e-06  -6.9467485732921076e-06  -7.1526101392743332e-06  -7.2854450469329973e-06  -7.3445336946418970e-06  -7.3285844401137886e-06  -7.2357491015700923e-06  -7.0636648488006606e-06  -6.8095166028041482e-06  -6.4701120532966323e-06  -6.0419613006689398e-06  -5.5213545843653869e-06  -4.9044334663184472e-06  -4.1872542484355416e-06  -3.3658430027028598e-06  -2.4362541835712397e-06  -1.3946361581948593e-06  -2.3737641793279170e-07  1.0386653226154445e-06  2.4356560176378643e-06  3.9538521025478504e-06  5.5917457428987827e-06  7.3409739487445009e-06  9.2053856889480397e-06  1.1163149385265652e-05  1.3242437371904517e-05  1.5012876450995645e-05  2.2261702630376054e-05  1.9114771896355279e-05  1.6735613457105160e-05  1.4597879476647663e-05  1.2594633677841829e-05  1.0699874554953554e-05  8.9093438691773062e-06  7.2241411527060166e-06  5.6442889214044992e-06  4.1685385453954030e-06  2.7947321805152645e-06  1.5202335505039963e-06  3.4221185802885588e-07  -7.4220048085477865e-07  -1.7358252590137018e-06  -2.6413921621972515e-06  -3.4615083929937062e-06  -4.1986347973116241e-06  -4.8550630405227397e-06  -5.4328892324927250e-06  -5.9339796056503247e-06  -6.3599248295345685e-06  -6.7119819485963235e-06  -6.9910067526761224e-06  -7.1973838007057203e-06  -7.3309647167161927e-06  -7.3910260553697750e-06  -7.3762552742232484e-06  -7.2847680459903121e-06  -7.1141543075255585e-06  -6.8615459838540404e-06  -6.5236972488004386e-06  -6.0970683371473510e-06  -5.5779058066902180e-06  -4.9623142955105235e-06  -4.2463183256273149e-06  -3.4259129387572595e-06  -2.4971121025735123e-06  -1.4559983406474085e-06  -2.9882201143751159e-07  9.7779775816773296e-07  2.3765483334441167e-06  3.8984280638553267e-06  5.5432744175162452e-06  7.3057182829574600e-06  9.1863808913784519e-06  1.1211546406673562e-05  1.3315322386593846e-05  1.5918564519785405e-05  2.3086232644357675e-05  1.9571593762988365e-05  1.6914766458226396e-05  1.4599730798107527e-05  1.2515569154561046e-05  1.0582290501345996e-05  8.7721010025147998e-06  7.0775854750183422e-06  5.4941688859101669e-06  4.0181771647478967e-06  2.6460392959557137e-06  1.3742833267883308e-06  1.9957496565661019e-07  -8.8126131114398288e-07  -1.8712419843254629e-06  -2.7732262356919242e-06  -3.5899139750594339e-06  -4.3238396770887782e-06  -4.9773616780899685e-06  -5.5526444675877448e-06  -6.0516297515976476e-06  -6.4759919658310968e-06  -6.8270762035173317e-06  -7.1058212889444222e-06  -7.3126769194608606e-06  -7.4475289651379065e-06  -7.5096482526880696e-06  -7.4976741401102778e-06  -7.4096364273632783e-06  -7.2430110046521625e-06  -6.9947990104036179e-06  -6.6616172724293456e-06  -6.2397887770833203e-06  -5.7254247573030754e-06  -5.1144926303298470e-06  -4.4028675614650941e-06  -3.5863638831179036e-06  -2.6607519937208918e-06  -1.6217522446166098e-06  -4.6504601359336695e-07  8.1368044661095242e-07  2.2186746173807779e-06  3.7535173640584703e-06  5.4227921459310372e-06  7.2289228664523767e-06  9.1894656490995078e-06  1.1370196780245954e-05  1.3723345404859918e-05  1.6904861158393526e-05  2.3832817758258233e-05  2.0165004503862216e-05  1.7288334632410040e-05  1.4742671367721025e-05  1.2514428374752985e-05  1.0493666656122695e-05  8.6303174180707421e-06  6.9044863469121655e-06  5.3031590650711291e-06  3.8177101033582414e-06  2.4414790153051970e-06  1.1690462099855308e-06  -4.1755416842734486e-09  -1.0821824959106444e-06  -2.0685417481755967e-06  -2.9664923603355302e-06  -3.7790060067859527e-06  -4.5088221654442042e-06  -5.1584666128327582e-06  -5.7302550836056072e-06  -6.2262788484883962e-06  -6.6483667193624215e-06  -6.9980196633722977e-06  -7.2763203517940840e-06  -7.4838294128348973e-06  -7.6204888870805598e-06  -7.6855558775730861e-06  -7.6775828287661480e-06  -7.5944481476185889e-06  -7.4334283420394467e-06  -7.1912953640592311e-06  -6.8644214369292884e-06  -6.4488763996522271e-06  -5.9405071962006252e-06  -5.3349926389257464e-06  -4.6278697620563984e-06  -3.8145247515144825e-06  -2.8901471748891562e-06  -1.8496275329415660e-06  -6.8741569705291812e-07  6.0267121108538445e-07  2.0277801888308970e-06  3.5960247335042343e-06  5.3192171046640103e-06  7.2112083786633854e-06  9.3070003497994190e-06  1.1696107388154968e-05  1.4334501818973823e-05  1.7794715387984545e-05  2.4548732520038353e-05  2.0805949622329358e-05  1.7752837358565416e-05  1.5003951778658107e-05  1.2611839954858707e-05  1.0471740681334112e-05  8.5261468346441997e-06  6.7456326661491413e-06  5.1086636360521693e-06  3.6007550148841821e-06  2.2111153596709562e-06  9.3147371299602756e-07  -2.4472730794095463e-07  -1.3228560705576032e-06  -2.3074459880626776e-06  -3.2024265340098276e-06  -4.0112724581111255e-06  -4.7371016674113736e-06  -5.3827404339590274e-06  -5.9507629711611288e-06  -6.4435031874353292e-06  -6.8630309699826804e-06  -7.2110856359911259e-06  -7.4889671741532049e-06  -7.6974009798461771e-06  -7.8364074398515523e-06  -7.9052129706926353e-06  -7.9022276692990829e-06  -7.8250924881890591e-06  -7.6707786092767241e-06  -7.4357119915817954e-06  -7.1158968836827566e-06  -6.7070185915117872e-06  -6.2045134430791563e-06  -5.6035987664916696e-06  -4.8992584018050413e-06  -4.0861739244083205e-06  -3.1585940567007416e-06  -2.1101116290709065e-06  -9.3335051265435072e-07  3.8047307762683652e-07  1.8422138574625205e-06  3.4652611233659811e-06  5.2686766351022819e-06  7.2757162209225938e-06  9.5313024073906368e-06  1.2127318752761515e-05  1.4996915053073277e-05  1.8609692479016726e-05  2.5229497120498851e-05  2.1439184139593014e-05  1.8253717679719475e-05  1.5337923309347217e-05  1.2788682474937502e-05  1.0519060999773331e-05  8.4747377042585017e-06  6.6222387645771974e-06  4.9342227767099091e-06  3.3911519419001803e-06  1.9780786454222752e-06  6.8354975550831799e-07  -5.0137374116008839e-07  -1.5838298666708129e-06  -2.5696624696934810e-06  -3.4637738299104800e-06  -4.2703661278350164e-06  -4.9931111324397099e-06  -5.6352734457688588e-06  -6.1997983694422781e-06  -6.6893620004229829e-06  -7.1063713944761736e-06  -7.4529000902377667e-06  -7.7305543335007045e-06  -7.9402900173842333e-06  -8.0822296598539189e-06  -8.1555402713410055e-06  -8.1584120602474385e-06  -8.0881371804767808e-06  -7.9412542429220093e-06  -7.7137132945865556e-06  -7.4010231348001321e-06  -6.9983567621183689e-06  -6.5006033871022256e-06  -5.9023621456100397e-06  -5.1978747068067262e-06  -4.3808865855769766e-06  -3.4444268989659402e-06  -2.3804715319147741e-06  -1.1794893010282527e-06  1.7016323867169387e-07  1.6830630100990159e-06  3.3772750005790624e-06  5.2772163197651609e-06  7.4111324758432935e-06  9.8255216178609651e-06  1.2602386447342573e-05  1.5646307123362169e-05  1.9348758201636649e-05  2.5865461825995778e-05  2.2040676350423353e-05  1.8754594072467194e-05  1.5704773589172613e-05  1.3016595465528633e-05  1.0621945587262286e-05  8.4742250514867615e-06  6.5406082138482558e-06  4.7912393968328224e-06  3.2031804689803640e-06  1.7580718871555046e-06  4.4150582348570423e-07  -7.5788068055524925e-07  -1.8491570912338737e-06  -2.8396762235698634e-06  -3.7355079827011146e-06  -4.5417541089243953e-06  -5.2627838088827451e-06  -5.9024171275779302e-06  -6.4640690517382503e-06  -6.9508496832420798e-06  -7.3656002211106675e-06  -7.7108358254435697e-06  -7.9885773445334741e-06  -8.2000942199827047e-06  -8.3456375449777657e-06  -8.4242685978152399e-06  -8.4338485099810820e-06  -8.3711769406223136e-06  -8.2322114075166148e-06  -8.0122914199249725e-06  -7.7063145182010803e-06  -7.3088388566463011e-06  -6.8141065976708651e-06  -6.2159905056592415e-06  -5.5078665595656644e-06  -4.6824056903152398e-06  -3.7312763214600064e-06  -2.6447259835977208e-06  -1.4110514379169113e-06  -1.5945305535505184e-08  1.5582816055297645e-06  3.3330266102041445e-06  5.3355493783662233e-06  7.5950054641423460e-06  1.0154055347111510e-05  1.3080735186881791e-05  1.6255024218884628e-05  2.0015805840376606e-05  2.6449202241159492e-05  2.2597940122025307e-05  1.9234157633366801e-05  1.6077036164681515e-05  1.3270603784585671e-05  1.0762482477982433e-05  8.5148404714051479e-06  6.4981909489602352e-06  4.6826818138908746e-06  3.0436904551898480e-06  1.5605195736593238e-06  2.1637841086239779e-07  -1.0022729796600602e-06  -2.1063760420096900e-06  -3.1048331145973678e-06  -4.0049674191265402e-06  -4.8128778775271198e-06  -5.5337227565223127e-06  -6.1719562853202505e-06  -6.7315320451478326e-06  -7.2160647508594933e-06  -7.6289186942814057e-06  -7.9731686798204875e-06  -8.2513857020670049e-06  -8.4652631046698862e-06  -8.6152110736455797e-06  -8.7001097120403014e-06  -8.7173328692449188e-06  -8.6630000116323593e-06  -8.5323182617950841e-06  -8.3198891426715544e-06  -8.0199137509458141e-06  -7.6262799162077744e-06  -7.1325415278947991e-06  -6.5318067168743897e-06  -5.8165476439296274e-06  -4.9783314184735597e-06  -4.0074693941398527e-06  -2.8925618010561416e-06  -1.6199646557488842e-06  -1.7319816363206339e-07  1.4676370789985982e-06  3.3257819462428189e-06  5.4291486343337058e-06  7.8050593299769417e-06  1.0489922184076234e-05  1.3538129176860716e-05  1.6811176519884402e-05  2.0612922483663142e-05  2.6975796699124937e-05  2.3103749131809536e-05  1.9679376108048005e-05  1.6436320594683521e-05  1.3531177623758498e-05  1.0923790704883402e-05  8.5844663138084843e-06  6.4881067544785655e-06  4.6063815956851394e-06  2.9143497957637002e-06  1.3900172802480092e-06  1.4893938880333400e-08  -1.2263303645766266e-06  -2.3462549601543027e-06  -3.3552433877688374e-06  -4.2618574971555314e-06  -5.0732157035064087e-06  -5.7952999069468317e-06  -6.4332314012955776e-06  -6.9915316298860805e-06  -7.4743571961432334e-06  -7.8856665229464205e-06  -8.2292224433116244e-06  -8.5083230156486634e-06  -8.7252418755929428e-06  -8.8805851707411000e-06  -8.9729250733014216e-06  -8.9989100978072673e-06  -8.9537306170596031e-06  -8.8316574838242178e-06  -8.6264531073754318e-06  -8.3315914980861986e-06  -7.9403031206001757e-06  -7.4454865594653042e-06  -6.8395255119754933e-06  -6.1140362086156298e-06  -5.2595517567788353e-06  -4.2651468917515825e-06  -3.1179901858107854e-06  -1.8028690966624698e-06  -3.0173603533469455e-07  1.4066058529826508e-06  3.3459804612310257e-06  5.5434343216736983e-06  8.0230415677598146e-06  1.0814488002302380e-05  1.3960529833690590e-05  1.7309530887054857e-05  2.1141592633757443e-05  2.7442219072071169e-05  2.3553744516607747e-05  2.0081952510923383e-05  1.6770197695885985e-05  1.3783764120966322e-05  1.1091742716842332e-05  8.6713578877426911e-06  6.5019754444625893e-06  4.5575066091982546e-06  2.8135926392033240e-06  1.2477649926768416e-06  -1.5952895997566415e-07  -1.4249194557643084e-06  -2.5623718629549674e-06  -3.5835390349436311e-06  -4.4981315228050091e-06  -5.3142478368576727e-06  -6.0386783286978167e-06  -6.6772014264611291e-06  -7.2348930046762097e-06  -7.7164446165127018e-06  -8.1264489122310166e-06  -8.4694928563725669e-06  -8.7498434706444599e-06  -8.9705923729877158e-06  -9.1325887240484594e-06  -9.2338761614407536e-06  -9.2700071327723062e-06  -9.2349124488232869e-06  -9.1217411883999615e-06  -8.9233754966704537e-06  -8.6326173113349854e-06  -8.2421406164350118e-06  -7.7443023049420154e-06  -7.1308752114640484e-06  -6.3927377785493985e-06  -5.5195299629552358e-06  -4.4992821756402219e-06  -3.3180120363966349e-06  -1.9593489103513101e-06  -4.0425483873057360e-07  1.3690071893612160e-06  3.3839529122976499e-06  5.6659093588938829e-06  8.2352443590773706e-06  1.1115449880775527e-05  1.4339978566437771e-05  1.7748093393438281e-05  2.1603290693739072e-05  2.7846713031644278e-05  2.3945295591103147e-05  2.0436488524961992e-05  1.7070152560213490e-05  1.4017685445772158e-05  1.1255094855582163e-05  8.7652151084925705e-06  6.5314637750815172e-06  4.5301804772942106e-06  2.7380749227110820e-06  1.1327644536216454e-06  -3.0585419802611983e-07  -1.5953163924487279e-06  -2.7506453468273521e-06  -3.7845703359474565e-06  -4.7078136018926632e-06  -5.5293715825904933e-06  -6.2567929381622512e-06  -6.8964732169993195e-06  -7.4539920129401019e-06  -7.9345163201380900e-06  -8.3432625139752010e-06  -8.6857708014473488e-06  -8.9676204359763995e-06  -9.1931057357346040e-06  -9.3633808700370503e-06  -9.4755652005450847e-06  -9.5235258971394062e-06  -9.4995107181869050e-06  -9.3954104915917380e-06  -9.2033035084905143e-06  -8.9154975830208631e-06  -8.5243110763907937e-06  -8.0217461254103181e-06  -7.3991318177588125e-06  -6.6467687178724680e-06  -5.7535786586074155e-06  -4.7067644098818608e-06  -3.4914775446001591e-06  -2.0905634891729810e-06  -4.8446335436459911e-07  1.3485617609838286e-06  3.4311942228740371e-06  5.7867029529446100e-06  8.4318698487815806e-06  1.1384921782928598e-05  1.4672127820039691e-05  1.8126521384709585e-05  2.1999648079539866e-05  2.8188315224679406e-05  2.4276829866713504e-05  2.0739430499389015e-05  1.7330291005914314e-05  1.4225146949418232e-05  1.1405127604019480e-05  8.8574718164780770e-06  6.5690346985279747e-06  4.5184508161888836e-06  2.6836750133642658e-06  1.0427360922332100e-06  -4.2465446447653526e-07  -1.7365960399865051e-06  -2.9088830376250840e-06  -3.9550976864851711e-06  -4.8868115071480536e-06  -5.7138094029375311e-06  -6.4443283686435857e-06  -7.0853298749356211e-06  -7.6428266384967477e-06  -8.1223515974080632e-06  -8.5296552140067629e-06  -8.8713019824932178e-06  -9.1546811025275737e-06  -9.3859383661092645e-06  -9.5666077427376500e-06  -9.6921649567591114e-06  -9.7538607063463775e-06  -9.7417756485643698e-06  -9.6465660532063937e-06  -9.4597850232480231e-06  -9.1735779126294184e-06  -8.7801990740748574e-06  -8.2715270578098911e-06  -7.6386321441369057e-06  -6.8714017941564236e-06  -5.9582112743853568e-06  -4.8856369809209300e-06  -3.6382111234460047e-06  -2.1982914025648373e-06  -5.4612922512118106e-07  1.3396946469474207e-06  3.4808027747161222e-06  5.8984159037301042e-06  8.6061534227167903e-06  1.1617991873988271e-05  1.4954780646877881e-05  1.8445325896446213e-05  2.2332389888863080e-05  2.8466527114334584e-05  2.4547415373612734e-05  2.0988421509251276e-05  1.7546510268298299e-05  1.4400483971438439e-05  1.1535201518229504e-05  8.9412525412493156e-06  6.6082571559960231e-06  4.5168349198348601e-06  2.6461529161434519e-06  9.7479187831317915e-07  -5.1749275464447518e-07  -1.8491075856594102e-06  -3.0363711317344549e-06  -4.0935018043468854e-06  -5.0327441762191353e-06  -5.8645406621053606e-06  -6.5977321139881261e-06  -7.2397973774396260e-06  -7.7971232082017334e-06  -8.2754839632548216e-06  -8.6809687507435356e-06  -9.0210490903746457e-06  -9.3056452887369918e-06  -9.5438389687171522e-06  -9.7375960064058277e-06  -9.8794809332750987e-06  -9.9567249223891654e-06  -9.9568436145232200e-06  -9.8696437440889916e-06  -9.6867190948235769e-06  -9.4005261081326042e-06  -9.0035844662462577e-06  -8.4878664827234710e-06  -7.8443376234928548e-06  -7.0626040010806498e-06  -6.1306323605906055e-06  -5.0345333467422231e-06  -3.7584073936448452e-06  -2.2843299183955769e-06  -5.9255975344776889e-07  1.3378628499203305e-06  3.5274914652538375e-06  5.9957215473559245e-06  8.7535653434226691e-06  1.1811709569478469e-05  1.5187004090263573e-05  1.8705416378187969e-05  2.2603212080757751e-05  2.8681104856849205e-05  2.4756501056771637e-05  2.1181893393226344e-05  1.7715961268989496e-05  1.4539623614788643e-05  1.1640366424524245e-05  9.0112197152044965e-06  6.6439019784781986e-06  4.5206182785567353e-06  2.6215811069939041e-06  9.2592775642175443e-07  -5.8642635073260979e-07  -1.9340183265732031e-06  -3.1334898773102069e-06  -4.1994949859979599e-06  -5.1447670721886286e-06  -5.9802512894838946e-06  -6.7152813350571007e-06  -7.3577947576258765e-06  -7.9145290790468946e-06  -8.3914431588116743e-06  -8.7947010585213624e-06  -9.1321708100899763e-06  -9.4172628763728995e-06  -9.6635876610996129e-06  -9.8735053750133714e-06  -1.0034706186638028e-05  -1.0128502954052174e-05  -1.0139867184204835e-05  -1.0058750150773854e-05  -9.8776297257106761e-06  -9.5897742406275369e-06  -9.1882218734757577e-06  -8.6651624345761056e-06  -8.0115326609049842e-06  -7.2167311497301882e-06  -6.2684081069065408e-06  -5.1523226998877931e-06  -3.8522721749824079e-06  -2.3501731683824350e-06  -6.2637860605948464e-07  1.3396078686935273e-06  3.5674061382605397e-06  6.0749272506743945e-06  8.8711694882250602e-06  1.1964389023899551e-05  1.5368575341386311e-05  1.8907823880657006e-05  2.2813669148245768e-05  2.8831929883418244e-05  2.4903757959654949e-05  2.1318811035479300e-05  1.7836701558998713e-05  1.4639714895692622e-05  1.1717060558584570e-05  9.0634129921461877e-06  6.6719502627320203e-06  4.5260221484294269e-06  2.6066375157372681e-06  8.9339987569388417e-07  -6.3358759013003686e-07  -1.9928862990899083e-06  -3.2013087348151035e-06  -4.2737695361799294e-06  -5.2233098200911739e-06  -6.0612028267832331e-06  -6.7971209900175071e-06  -7.4393463016180183e-06  -7.9949400984430057e-06  -8.4701112024496028e-06  -8.8709593830500436e-06  -9.2048585628424285e-06  -9.4895922825286624e-06  -9.7447023106574655e-06  -9.9729503853659089e-06  -1.0155207854932037e-05  -1.0264633866433639e-05  -1.0284479752846513e-05  -1.0206520573868258e-05  -1.0024952293068479e-05  -9.7341336832970816e-06  -9.3276554296645427e-06  -8.7978966825332146e-06  -8.1357515592954318e-06  -7.3304346512750881e-06  -6.3693393111814160e-06  -5.2379564276345625e-06  -3.9198668911638431e-06  -2.3968925497575730e-06  -6.4948845475353473e-07  1.3424659697909464e-06  3.5978803927583464e-06  6.1335804909265831e-06  8.9571371441525602e-06  1.2075133016755158e-05  1.5499626562174447e-05  1.9053523984886393e-05  2.2965087091379760e-05  2.8918930337812644e-05  2.4988982951047006e-05  2.1398515196175053e-05  1.7907476354400681e-05  1.4698885332757506e-05  1.1762898912936027e-05  9.0951203027177576e-06  6.6895772266020740e-06  4.5303069082027870e-06  2.5988178281594585e-06  8.7502707297264988e-07  -6.6081070787338115e-07  -2.0272327567812859e-06  -3.2411176677048648e-06  -4.3175025389675516e-06  -5.2695799972150723e-06  -6.1087857249734536e-06  -6.8449588675608481e-06  -7.4865539322172383e-06  -8.0408433067103103e-06  -8.5143082588148263e-06  -8.9130429440208023e-06  -9.2431211666872194e-06  -9.5272147764863098e-06  -9.7897476729426526e-06  -1.0033836365234504e-05  -1.0235218896179683e-05  -1.0356728972511402e-05  -1.0380921399133653e-05  -1.0303274398137382e-05  -1.0119885596946993e-05  -9.8259976806279924e-06  -9.4155371375905474e-06  -8.8809390202942419e-06  -8.2130110194835222e-06  -7.4008075653398582e-06  -6.4315307311033253e-06  -5.2904846072027112e-06  -3.9611045443394591e-06  -2.4251489860083639e-06  -6.6313593511193262e-07  1.3448216777733008e-06  3.6171956807947844e-06  6.1701499898158829e-06  9.0103936820556627e-06  1.2143510868689310e-05  1.5580414446468667e-05  1.9143320844862983e-05  2.3058499966655125e-05  2.8942033398816551e-05  2.5012041180878356e-05  2.1420629858905302e-05  1.7927587468881260e-05  1.4716091291594389e-05  1.1776537913672437e-05  9.1047902977580703e-06  6.6951366830650994e-06  4.5318404391341126e-06  2.5965896845611429e-06  8.6942821594874314e-07  -6.6931269949234023e-07  -2.0381361932740257e-06  -3.2539193201212736e-06  -4.3317197950786033e-06  -5.2847634805820195e-06  -6.1245238761544710e-06  -6.8608768791239645e-06  -7.5023088607394188e-06  -8.0561477434714728e-06  -8.5289136523570978e-06  -8.9267106172726068e-06  -9.2544378389043721e-06  -9.5362731425411844e-06  -9.8014123728789045e-06  -1.0050944569108616e-05