<?xml version="1.0"?>
<VTKFile type="UnstructuredGrid"  version="0.1"  >
<UnstructuredGrid>
<Piece  NumberOfPoints="1617" NumberOfCells="3072">
<Points>
<DataArray  type="Float64"  NumberOfComponents="3"  format="ascii">0 0 0  0.03125 0 0  0.0625 0 0  0.09375 0 0  0.125 0 0  0.15625 0 0  0.1875 0 0  0.21875 0 0  0.25 0 0  0.28125 0 0  0.3125 0 0  0.34375 0 0  0.375 0 0  0.40625 0 0  0.4375 0 0  0.46875 0 0  0.5 0 0  0.53125 0 0  0.5625 0 0  0.59375 0 0  0.625 0 0  0.65625 0 0  0.6875 0 0  0.71875 0 0  0.75 0 0  0.78125 0 0  0.8125 0 0  0.84375 0 0  0.875 0 0  0.90625 0 0  0.9375 0 0  0.96875 0 0  1 0 0  1.03125 0 0  1.0625 0 0  1.09375 0 0  1.125 0 0  1.15625 0 0  1.1875 0 0  1.21875 0 0  1.25 0 0  1.28125 0 0  1.3125 0 0  1.34375 0 0  1.375 0 0  1.40625 0 0  1.4375 0 0  1.46875 0 0  1.5 0 0  0 0.03125 0  0.03125 0.03125 0  0.0625 0.03125 0  0.09375 0.03125 0  0.125 0.03125 0  0.15625 0.03125 0  0.1875 0.03125 0  0.21875 0.03125 0  0.25 0.03125 0  0.28125 0.03125 0  0.3125 0.03125 0  0.34375 0.03125 0  0.375 0.03125 0  0.40625 0.03125 0  0.4375 0.03125 0  0.46875 0.03125 0  0.5 0.03125 0  0.53125 0.03125 0  0.5625 0.03125 0  0.59375 0.03125 0  0.625 0.03125 0  0.65625 0.03125 0  0.6875 0.03125 0  0.71875 0.03125 0  0.75 0.03125 0  0.78125 0.03125 0  0.8125 0.03125 0  0.84375 0.03125 0  0.875 0.03125 0  0.90625 0.03125 0  0.9375 0.03125 0  0.96875 0.03125 0  1 0.03125 0  1.03125 0.03125 0  1.0625 0.03125 0  1.09375 0.03125 0  1.125 0.03125 0  1.15625 0.03125 0  1.1875 0.03125 0  1.21875 0.03125 0  1.25 0.03125 0  1.28125 0.03125 0  1.3125 0.03125 0  1.34375 0.03125 0  1.375 0.03125 0  1.40625 0.03125 0  1.4375 0.03125 0  1.46875 0.03125 0  1.5 0.03125 0  0 0.0625 0  0.03125 0.0625 0  0.0625 0.0625 0  0.09375 0.0625 0  0.125 0.0625 0  0.15625 0.0625 0  0.1875 0.0625 0  0.21875 0.0625 0  0.25 0.0625 0  0.28125 0.0625 0  0.3125 0.0625 0  0.34375 0.0625 0  0.375 0.0625 0  0.40625 0.0625 0  0.4375 0.0625 0  0.46875 0.0625 0  0.5 0.0625 0  0.53125 0.0625 0  0.5625 0.0625 0  0.59375 0.0625 0  0.625 0.0625 0  0.65625 0.0625 0  0.6875 0.0625 0  0.71875 0.0625 0  0.75 0.0625 0  0.78125 0.0625 0  0.8125 0.0625 0  0.84375 0.0625 0  0.875 0.0625 0  0.90625 0.0625 0  0.9375 0.0625 0  0.96875 0.0625 0  1 0.0625 0  1.03125 0.0625 0  1.0625 0.0625 0  1.09375 0.0625 0  1.125 0.0625 0  1.15625 0.0625 0  1.1875 0.0625 0  1.21875 0.0625 0  1.25 0.0625 0  1.28125 0.0625 0  1.3125 0.0625 0  1.34375 0.0625 0  1.375 0.0625 0  1.40625 0.0625 0  1.4375 0.0625 0  1.46875 0.0625 0  1.5 0.0625 0  0 0.09375 0  0.03125 0.09375 0  0.0625 0.09375 0  0.09375 0.09375 0  0.125 0.09375 0  0.15625 0.09375 0  0.1875 0.09375 0  0.21875 0.09375 0  0.25 0.09375 0  0.28125 0.09375 0  0.3125 0.09375 0  0.34375 0.09375 0  0.375 0.09375 0  0.40625 0.09375 0  0.4375 0.09375 0  0.46875 0.09375 0  0.5 0.09375 0  0.53125 0.09375 0  0.5625 0.09375 0  0.59375 0.09375 0  0.625 0.09375 0  0.65625 0.09375 0  0.6875 0.09375 0  0.71875 0.09375 0  0.75 0.09375 0  0.78125 0.09375 0  0.8125 0.09375 0  0.84375 0.09375 0  0.875 0.09375 0  0.90625 0.09375 0  0.9375 0.09375 0  0.96875 0.09375 0  1 0.09375 0  1.03125 0.09375 0  1.0625 0.09375 0  1.09375 0.09375 0  1.125 0.09375 0  1.15625 0.09375 0  1.1875 0.09375 0  1.21875 0.09375 0  1.25 0.09375 0  1.28125 0.09375 0  1.3125 0.09375 0  1.34375 0.09375 0  1.375 0.09375 0  1.40625 0.09375 0  1.4375 0.09375 0  1.46875 0.09375 0  1.5 0.09375 0  0 0.125 0  0.03125 0.125 0  0.0625 0.125 0  0.09375 0.125 0  0.125 0.125 0  0.15625 0.125 0  0.1875 0.125 0  0.21875 0.125 0  0.25 0.125 0  0.28125 0.125 0  0.3125 0.125 0  0.34375 0.125 0  0.375 0.125 0  0.40625 0.125 0  0.4375 0.125 0  0.46875 0.125 0  0.5 0.125 0  0.53125 0.125 0  0.5625 0.125 0  0.59375 0.125 0  0.625 0.125 0  0.65625 0.125 0  0.6875 0.125 0  0.71875 0.125 0  0.75 0.125 0  0.78125 0.125 0  0.8125 0.125 0  0.84375 0.125 0  0.875 0.125 0  0.90625 0.125 0  0.9375 0.125 0  0.96875 0.125 0  1 0.125 0  1.03125 0.125 0  1.0625 0.125 0  1.09375 0.125 0  1.125 0.125 0  1.15625 0.125 0  1.1875 0.125 0  1.21875 0.125 0  1.25 0.125 0  1.28125 0.125 0  1.3125 0.125 0  1.34375 0.125 0  1.375 0.125 0  1.40625 0.125 0  1.4375 0.125 0  1.46875 0.125 0  1.5 0.125 0  0 0.15625 0  0.03125 0.15625 0  0.0625 0.15625 0  0.09375 0.15625 0  0.125 0.15625 0  0.15625 0.15625 0  0.1875 0.15625 0  0.21875 0.15625 0  0.25 0.15625 0  0.28125 0.15625 0  0.3125 0.15625 0  0.34375 0.15625 0  0.375 0.15625 0  0.40625 0.15625 0  0.4375 0.15625 0  0.46875 0.15625 0  0.5 0.15625 0  0.53125 0.15625 0  0.5625 0.15625 0  0.59375 0.15625 0  0.625 0.15625 0  0.65625 0.15625 0  0.6875 0.15625 0  0.71875 0.15625 0  0.75 0.15625 0  0.78125 0.15625 0  0.8125 0.15625 0  0.84375 0.15625 0  0.875 0.15625 0  0.90625 0.15625 0  0.9375 0.15625 0  0.96875 0.15625 0  1 0.15625 0  1.03125 0.15625 0  1.0625 0.15625 0  1.09375 0.15625 0  1.125 0.15625 0  1.15625 0.15625 0  1.1875 0.15625 0  1.21875 0.15625 0  1.25 0.15625 0  1.28125 0.15625 0  1.3125 0.15625 0  1.34375 0.15625 0  1.375 0.15625 0  1.40625 0.15625 0  1.4375 0.15625 0  1.46875 0.15625 0  1.5 0.15625 0  0 0.1875 0  0.03125 0.1875 0  0.0625 0.1875 0  0.09375 0.1875 0  0.125 0.1875 0  0.15625 0.1875 0  0.1875 0.1875 0  0.21875 0.1875 0  0.25 0.1875 0  0.28125 0.1875 0  0.3125 0.1875 0  0.34375 0.1875 0  0.375 0.1875 0  0.40625 0.1875 0  0.4375 0.1875 0  0.46875 0.1875 0  0.5 0.1875 0  0.53125 0.1875 0  0.5625 0.1875 0  0.59375 0.1875 0  0.625 0.1875 0  0.65625 0.1875 0  0.6875 0.1875 0  0.71875 0.1875 0  0.75 0.1875 0  0.78125 0.1875 0  0.8125 0.1875 0  0.84375 0.1875 0  0.875 0.1875 0  0.90625 0.1875 0  0.9375 0.1875 0  0.96875 0.1875 0  1 0.1875 0  1.03125 0.1875 0  1.0625 0.1875 0  1.09375 0.1875 0  1.125 0.1875 0  1.15625 0.1875 0  1.1875 0.1875 0  1.21875 0.1875 0  1.25 0.1875 0  1.28125 0.1875 0  1.3125 0.1875 0  1.34375 0.1875 0  1.375 0.1875 0  1.40625 0.1875 0  1.4375 0.1875 0  1.46875 0.1875 0  1.5 0.1875 0  0 0.21875 0  0.03125 0.21875 0  0.0625 0.21875 0  0.09375 0.21875 0  0.125 0.21875 0  0.15625 0.21875 0  0.1875 0.21875 0  0.21875 0.21875 0  0.25 0.21875 0  0.28125 0.21875 0  0.3125 0.21875 0  0.34375 0.21875 0  0.375 0.21875 0  0.40625 0.21875 0  0.4375 0.21875 0  0.46875 0.21875 0  0.5 0.21875 0  0.53125 0.21875 0  0.5625 0.21875 0  0.59375 0.21875 0  0.625 0.21875 0  0.65625 0.21875 0  0.6875 0.21875 0  0.71875 0.21875 0  0.75 0.21875 0  0.78125 0.21875 0  0.8125 0.21875 0  0.84375 0.21875 0  0.875 0.21875 0  0.90625 0.21875 0  0.9375 0.21875 0  0.96875 0.21875 0  1 0.21875 0  1.03125 0.21875 0  1.0625 0.21875 0  1.09375 0.21875 0  1.125 0.21875 0  1.15625 0.21875 0  1.1875 0.21875 0  1.21875 0.21875 0  1.25 0.21875 0  1.28125 0.21875 0  1.3125 0.21875 0  1.34375 0.21875 0  1.375 0.21875 0  1.40625 0.21875 0  1.4375 0.21875 0  1.46875 0.21875 0  1.5 0.21875 0  0 0.25 0  0.03125 0.25 0  0.0625 0.25 0  0.09375 0.25 0  0.125 0.25 0  0.15625 0.25 0  0.1875 0.25 0  0.21875 0.25 0  0.25 0.25 0  0.28125 0.25 0  0.3125 0.25 0  0.34375 0.25 0  0.375 0.25 0  0.40625 0.25 0  0.4375 0.25 0  0.46875 0.25 0  0.5 0.25 0  0.53125 0.25 0  0.5625 0.25 0  0.59375 0.25 0  0.625 0.25 0  0.65625 0.25 0  0.6875 0.25 0  0.71875 0.25 0  0.75 0.25 0  0.78125 0.25 0  0.8125 0.25 0  0.84375 0.25 0  0.875 0.25 0  0.90625 0.25 0  0.9375 0.25 0  0.96875 0.25 0  1 0.25 0  1.03125 0.25 0  1.0625 0.25 0  1.09375 0.25 0  1.125 0.25 0  1.15625 0.25 0  1.1875 0.25 0  1.21875 0.25 0  1.25 0.25 0  1.28125 0.25 0  1.3125 0.25 0  1.34375 0.25 0  1.375 0.25 0  1.40625 0.25 0  1.4375 0.25 0  1.46875 0.25 0  1.5 0.25 0  0 0.28125 0  0.03125 0.28125 0  0.0625 0.28125 0  0.09375 0.28125 0  0.125 0.28125 0  0.15625 0.28125 0  0.1875 0.28125 0  0.21875 0.28125 0  0.25 0.28125 0  0.28125 0.28125 0  0.3125 0.28125 0  0.34375 0.28125 0  0.375 0.28125 0  0.40625 0.28125 0  0.4375 0.28125 0  0.46875 0.28125 0  0.5 0.28125 0  0.53125 0.28125 0  0.5625 0.28125 0  0.59375 0.28125 0  0.625 0.28125 0  0.65625 0.28125 0  0.6875 0.28125 0  0.71875 0.28125 0  0.75 0.28125 0  0.78125 0.28125 0  0.8125 0.28125 0  0.84375 0.28125 0  0.875 0.28125 0  0.90625 0.28125 0  0.9375 0.28125 0  0.96875 0.28125 0  1 0.28125 0  1.03125 0.28125 0  1.0625 0.28125 0  1.09375 0.28125 0  1.125 0.28125 0  1.15625 0.28125 0  1.1875 0.28125 0  1.21875 0.28125 0  1.25 0.28125 0  1.28125 0.28125 0  1.3125 0.28125 0  1.34375 0.28125 0  1.375 0.28125 0  1.40625 0.28125 0  1.4375 0.28125 0  1.46875 0.28125 0  1.5 0.28125 0  0 0.3125 0  0.03125 0.3125 0  0.0625 0.3125 0  0.09375 0.3125 0  0.125 0.3125 0  0.15625 0.3125 0  0.1875 0.3125 0  0.21875 0.3125 0  0.25 0.3125 0  0.28125 0.3125 0  0.3125 0.3125 0  0.34375 0.3125 0  0.375 0.3125 0  0.40625 0.3125 0  0.4375 0.3125 0  0.46875 0.3125 0  0.5 0.3125 0  0.53125 0.3125 0  0.5625 0.3125 0  0.59375 0.3125 0  0.625 0.3125 0  0.65625 0.3125 0  0.6875 0.3125 0  0.71875 0.3125 0  0.75 0.3125 0  0.78125 0.3125 0  0.8125 0.3125 0  0.84375 0.3125 0  0.875 0.3125 0  0.90625 0.3125 0  0.9375 0.3125 0  0.96875 0.3125 0  1 0.3125 0  1.03125 0.3125 0  1.0625 0.3125 0  1.09375 0.3125 0  1.125 0.3125 0  1.15625 0.3125 0  1.1875 0.3125 0  1.21875 0.3125 0  1.25 0.3125 0  1.28125 0.3125 0  1.3125 0.3125 0  1.34375 0.3125 0  1.375 0.3125 0  1.40625 0.3125 0  1.4375 0.3125 0  1.46875 0.3125 0  1.5 0.3125 0  0 0.34375 0  0.03125 0.34375 0  0.0625 0.34375 0  0.09375 0.34375 0  0.125 0.34375 0  0.15625 0.34375 0  0.1875 0.34375 0  0.21875 0.34375 0  0.25 0.34375 0  0.28125 0.34375 0  0.3125 0.34375 0  0.34375 0.34375 0  0.375 0.34375 0  0.40625 0.34375 0  0.4375 0.34375 0  0.46875 0.34375 0  0.5 0.34375 0  0.53125 0.34375 0  0.5625 0.34375 0  0.59375 0.34375 0  0.625 0.34375 0  0.65625 0.34375 0  0.6875 0.34375 0  0.71875 0.34375 0  0.75 0.34375 0  0.78125 0.34375 0  0.8125 0.34375 0  0.84375 0.34375 0  0.875 0.34375 0  0.90625 0.34375 0  0.9375 0.34375 0  0.96875 0.34375 0  1 0.34375 0  1.03125 0.34375 0  1.0625 0.34375 0  1.09375 0.34375 0  1.125 0.34375 0  1.15625 0.34375 0  1.1875 0.34375 0  1.21875 0.34375 0  1.25 0.34375 0  1.28125 0.34375 0  1.3125 0.34375 0  1.34375 0.34375 0  1.375 0.34375 0  1
[...]
<PointData  Scalars="f_33"> 
<DataArray  type="Float64"  Name="f_33"  format="ascii">2.0545523434325571e-05  1.9107025246990396e-05  1.6690838032462216e-05  1.4214895205624990e-05  1.1847127268286176e-05  9.6139470576137883e-06  7.5238802476632159e-06  5.5790623570096081e-06  3.7779194832970264e-06  2.1168731874780246e-06  5.9122536159140766e-07  -8.0430334060564774e-07  -2.0752224220086629e-06  -3.2270390818175176e-06  -4.2651064143325043e-06  -5.1945248480226610e-06  -6.0200765300993489e-06  -6.7461784806731013e-06  -7.3768452425005811e-06  -7.9156551449979236e-06  -8.3657165137602319e-06  -8.7296317907539963e-06  -9.0094591037622664e-06  -9.2066725475304399e-06  -9.3221241446229008e-06  -9.3560116908749390e-06  -9.3078569729679770e-06  -9.1764979534709561e-06  -8.9600966479070429e-06  -8.6561621403074176e-06  -8.2615861498531818e-06  -7.7726873439407898e-06  -7.1852603061860756e-06  -6.4946258745579204e-06  -5.6956807942301151e-06  -4.7829473781386687e-06  -3.7506255292150438e-06  -2.5926570261970456e-06  -1.3028086005838779e-06  1.2519791926840892e-07  1.6975116819053734e-06  3.4199636190936007e-06  5.2975667818623799e-06  7.3359010864474962e-06  9.5355141874801300e-06  1.1909914313409428e-05  1.4488509163678646e-05  1.7130123084666232e-05  1.8147291631724138e-05  2.0914765359016090e-05  1.9396383820044045e-05  1.6718170473426423e-05  1.4144169176515658e-05  1.1749822126722569e-05  9.5112730848864616e-06  7.4214402636562801e-06  5.4790952186749430e-06  3.6814329058339334e-06  2.0243949841396254e-06  5.0303372664985028e-07  -8.8809991901121158e-07  -2.1546464366909154e-06  -3.3022147498276617e-06  -4.3362346579345517e-06  -5.2618628413820895e-06  -6.0839223683053631e-06  -6.8068607293844887e-06  -7.4347166009552501e-06  -7.9710892649793656e-06  -8.4191069739818461e-06  -8.7813921933934954e-06  -9.0600232313275398e-06  -9.2564935803985030e-06  -9.3716721863839457e-06  -9.4057692931507771e-06  -9.3583128872200842e-06  -9.2281397811660210e-06  -9.0134032503451521e-06  -8.7115965424760546e-06  -8.3195892858915639e-06  -7.8336724629455483e-06  -7.2496073274027235e-06  -6.5626744995022454e-06  -5.7677208917745798e-06  -4.8592048724502445e-06  -3.8312424240278187e-06  -2.6776637221549665e-06  -1.3920885207138191e-06  3.1956806755693663e-08  1.6008878936860491e-06  3.3209244837940538e-06  5.1978214970190218e-06  7.2384400108954757e-06  9.4473235917079009e-06  1.1849724355412038e-05  1.4496624859596292e-05  1.7336528083406009e-05  1.8714362408207591e-05  2.1628782235214628e-05  1.9951230786718325e-05  1.6918878357863731e-05  1.4147456250979214e-05  1.1657787645616979e-05  9.3744772380451846e-06  7.2614329410420582e-06  5.3075263548082127e-06  3.5048751507294406e-06  1.8469331115922175e-06  3.2735125677608063e-07  -1.0602261675155756e-06  -2.3220836379773507e-06  -3.4643072965233505e-06  -4.4926845297024811e-06  -5.4126397197334037e-06  -6.2291965109649228e-06  -6.9469545150834937e-06  -7.5700713058206794e-06  -8.1022437677189262e-06  -8.5466850722900401e-06  -8.9060950711970755e-06  -9.1826234846912958e-06  -9.3778273959054466e-06  -9.4926270695545849e-06  -9.5272661986659820e-06  -9.4812833414767574e-06  -9.3534999932860335e-06  -9.1420277426091047e-06  -8.8442933175780123e-06  -8.4570772084188817e-06  -7.9765598276145733e-06  -7.3983689429516656e-06  -6.7176233038124912e-06  -5.9289691369176926e-06  -5.0266092856011901e-06  -4.0043270205241670e-06  -2.8555128926474201e-06  -1.5731977277910910e-06  -1.5010354095977619e-07  1.4213382810488519e-06  3.1491250605030041e-06  5.0420567888808778e-06  7.1128435822604938e-06  9.3772767767894656e-06  1.1886554042243944e-05  1.4722197560131195e-05  1.7835925711362320e-05  1.9423728919057045e-05  2.2464405286468821e-05  2.0651869339915057e-05  1.7309468190795899e-05  1.4291649114402170e-05  1.1642590771588726e-05  9.2641359331542910e-06  7.0929625742176592e-06  5.1041935561499986e-06  3.2811179466157717e-06  1.6122201327887983e-06  8.8096409967387910e-08  -1.2996268416129447e-06  -2.5586442092553153e-06  -3.6960670705817493e-06  -4.7184441872948910e-06  -5.6317711127760078e-06  -6.4415028622654996e-06  -7.1525683162029853e-06  -7.7693816377380908e-06  -8.2958466232597516e-06  -8.7353508053202907e-06  -9.0907468739093857e-06  -9.3643203470958236e-06  -9.5577450851184168e-06  -9.6720319966992455e-06  -9.7074797610928022e-06  -9.6636376933970386e-06  -9.5392888919767551e-06  -9.3324570175157417e-06  -9.0404343180262301e-06  -8.6598238926874785e-06  -8.1865869974340255e-06  -7.6160863781445709e-06  -6.9431185897715098e-06  -6.1619306339819160e-06  -5.2662194942567207e-06  -4.2491145805578742e-06  -3.1031470734029064e-06  -1.8201983705516850e-06  -3.9141590083655499e-07  1.1930061155148005e-06  2.9443990416510481e-06  4.8767676688395059e-06  7.0112565961687372e-06  9.3765722037368257e-06  1.2042171613823493e-05  1.5097707549451547e-05  1.8460938057573678e-05  2.0199838009693570e-05  2.3307973559412055e-05  2.1404567231200592e-05  1.7824914225292083e-05  1.4569955457109685e-05  1.1734296212116208e-05  9.2245377809281692e-06  6.9632847608933789e-06  4.9143845704917853e-06  3.0518364631848662e-06  1.3580157497929480e-06  -1.8069946342362583e-07  -1.5756502139861032e-06  -2.8366733068385552e-06  -3.9724668184734306e-06  -4.9907735559893460e-06  -5.8984961038559652e-06  -6.7017828487075448e-06  -7.4060969912208798e-06  -8.0162706117592829e-06  -8.5365429437202388e-06  -8.9705806225012270e-06  -9.3214768560103579e-06  -9.5917271613224635e-06  -9.7831827169304252e-06  -9.8969884018575150e-06  -9.9335188092799840e-06  -9.8923282068182221e-06  -9.7721272090564504e-06  -9.5707907533240025e-06  -9.2853924665968614e-06  -8.9122535517246942e-06  -8.4469919208434738e-06  -7.8845588033824214e-06  -7.2192537063888610e-06  -6.4447120364816368e-06  -5.5538629851385824e-06  -4.5388554257066053e-06  -3.3909506896405924e-06  -2.1003634441374355e-06  -6.5601949029783491e-07  9.5490422574029656e-07  2.7479079306815064e-06  4.7427729247227446e-06  6.9684210796051559e-06  9.4624934823617063e-06  1.2301447951049675e-05  1.5566911585795737e-05  1.9137245580799298e-05  2.0984748463411773e-05  2.4118642520603642e-05  2.2152469917899071e-05  1.8395672279958942e-05  1.4936381326924243e-05  1.1917187540509191e-05  9.2613299795056966e-06  6.8899976681765383e-06  4.7613014034074548e-06  2.8422956738497267e-06  1.1097568022412987e-06  -4.5437664905994996e-07  -1.8648448737887596e-06  -3.1340848848006587e-06  -4.2727988778818028e-06  -5.2902810901578198e-06  -6.1946387314525713e-06  -6.9929572972218229e-06  -7.6914316140123780e-06  -8.2954704124931445e-06  -8.8097766905459880e-06  -9.2384022258477100e-06  -9.5847714382039563e-06  -9.8516690650217026e-06  -1.0041190359288546e-05  -1.0154662560880482e-05  -1.0192558009528219e-05  -1.0154424957341795e-05  -1.0038856765089992e-05  -9.8435055600201159e-06  -9.5651301588916881e-06  -9.1996577281975571e-06  -8.7422371762745548e-06  -8.1872671277526873e-06  -7.5283882485742082e-06  -6.7584348215560318e-06  -5.8693438226257107e-06  -4.8520186765549479e-06  -3.6961441874620052e-06  -2.3899291396400754e-06  -9.1974092795942551e-07  7.3050113667501445e-07  2.5803893132127857e-06  4.6546248470944979e-06  6.9874311815340989e-06  9.6202210590823410e-06  1.2628186311477991e-05  1.6077860066715447e-05  1.9812108886718248e-05  2.1736064332882588e-05  2.4877258798186144e-05  2.2865977647060152e-05  1.8975703807448357e-05  1.5348381338031684e-05  1.2163109540892553e-05  9.3625495103679468e-06  6.8735906586116259e-06  4.6536868527401664e-06  2.6662181252895667e-06  8.8388108774020242e-07  -7.1522773404037210e-07  -2.1491207453507653e-06  -3.4329348628549267e-06  -4.5795667894977554e-06  -5.6000764348227517e-06  -6.5039828230054955e-06  -7.2994945904797766e-06  -7.9936977960864442e-06  -8.5927108510117767e-06  -9.1018105729776129e-06  -9.5255272947036851e-06  -9.8677006494781727e-06  -1.0131483775631708e-05  -1.0319288184374322e-05  -1.0432678540752560e-05  -1.0472248931481118e-05  -1.0437524615098262e-05  -1.0326923946963864e-05  -1.0137787809152285e-05  -9.8664550664789757e-06  -9.5083479016744518e-06  -9.0580336996633978e-06  -8.5092425605534496e-06  -7.8548320998458778e-06  -7.0866984240396306e-06  -6.1956351785098672e-06  -5.1711403605421267e-06  -4.0011696046242355e-06  -2.6718161847324538e-06  -1.1668930940430953e-06  5.3268860985933110e-07  2.4498906902836005e-06  4.6127915641007762e-06  7.0581417260469148e-06  9.8270255713723572e-06  1.2988835937535071e-05  1.6593670625869807e-05  2.0456151915904344e-05  2.2435066764787778e-05  2.5574243155171538e-05  2.3529362039489284e-05  1.9536818442811652e-05  1.5773387263408925e-05  1.2444227283384197e-05  9.5096801088865615e-06  6.9049997062904403e-06  4.5903134891099102e-06  2.5281469708391580e-06  6.8888177370728578e-07  -9.5220121573947102e-07  -2.4158708711056546e-06  -3.7197576482068345e-06  -4.8789173281798168e-06  -5.9062292831835248e-06  -6.8127190696041281e-06  -7.6078256000764887e-06  -8.2996294892477163e-06  -8.8950501030308419e-06  -9.4000157816793604e-06  -9.8196039142815304e-06  -1.0158137408904193e-05  -1.0419212734581491e-05  -1.0605636695670937e-05  -1.0719277560395224e-05  -1.0760879739721848e-05  -1.0729919561914973e-05  -1.0624563010901750e-05  -1.0441731999243186e-05  -1.0177232786444834e-05  -9.8258817602817843e-06  -9.3815799614341803e-06  -8.8373156754365746e-06  -8.1850952042456901e-06  -7.4158100458877864e-06  -6.5190495538697489e-06  -5.4828642014869742e-06  -4.2934842956161503e-06  -2.9349845018628998e-06  -1.3888897480633263e-06  3.6634572109523227e-07  2.3560606708198437e-06  4.6101156101519024e-06  7.1655376050843494e-06  1.0060550213670095e-05  1.3357001581125265e-05  1.7090022649275370e-05  2.1053001815821825e-05  2.3072606367669162e-05  2.6204336545721777e-05  2.4133757996952963e-05  2.0061667452477419e-05  1.6188470095891980e-05  1.2737666509012104e-05  9.6841044369417852e-06  6.9716159691439737e-06  4.5646455278811226e-06  2.4267585334958878e-06  5.2754126255103008e-07  -1.1594563484381779e-06  -2.6570747371817437e-06  -3.9850407792071510e-06  -5.1603634375487156e-06  -6.1976570336320876e-06  -7.1094410534972344e-06  -7.9064104515946808e-06  -8.5976819103397581e-06  -9.1910183877488657e-06  -9.6930368750130598e-06  -1.0109395609694991e-05  -1.0444944054390750e-05  -1.0703789277633687e-05  -1.0889224313341261e-05  -1.1003508295776613e-05  -1.1047573712235352e-05  -1.1020805544096697e-05  -1.0921005424449304e-05  -1.0744538341026556e-05  -1.0486558472486066e-05  -1.0141197040087192e-05  -9.7016476403562989e-06  -9.1601412628183767e-06  -8.5078317829821842e-06  -7.7346160306744504e-06  -6.8289068940270955e-06  -5.7773708562191529e-06  -4.5646423076088656e-06  -3.1730174059673835e-06  -1.5821449367779007e-06  2.3131960670682611e-07  2.2941183382865237e-06  4.6365903815784036e-06  7.2945438956670332e-06  1.0302133557811921e-05  1.3713571146876458e-05  1.7551456787590011e-05  2.1593635711983368e-05  2.3644163485300749e-05  2.6764452579893019e-05  2.4673900084448701e-05  2.0539317108213810e-05  1.6577808503584598e-05  1.3025832898045831e-05  9.8695599602663367e-06  7.0605195058168798e-06  4.5679295522516717e-06  2.3574275581623757e-06  3.9888784942948718e-07  -1.3349528603519659e-06  -2.8683255829601063e-06  -4.2225837007195161e-06  -5.4163863334681854e-06  -6.4659016205802927e-06  -7.3850451962851042e-06  -8.1857236436911481e-06  -8.8780749127518174e-06  -9.4707018576923538e-06  -9.9709051856686073e-06  -1.0384915855322993e-05  -1.0718118645029685e-05  -1.0975186038661053e-05  -1.1160010279966556e-05  -1.1275370976697554e-05  -1.1322444572030251e-05  -1.1300448249089046e-05  -1.1206642127110926e-05  -1.1036647848942812e-05  -1.0784845945587930e-05  -1.0444643869723495e-05  -1.0008550737039542e-05  -9.4680955412697841e-06  -8.8136490920663629e-06  -8.0341938530155046e-06  -7.1170671978287357e-06  -6.0476927945109375e-06  -4.8093181794627144e-06  -3.3827723510511974e-06  -1.7462792442594968e-06  1.2468183721130118e-07  2.2574598413392722e-06  4.6819702818547142e-06  7.4319914082846627e-06  1.0537305480568993e-05  1.4045217511330613e-05  1.7968305298393711e-05  2.2073162051869418e-05  2.4147636072642709e-05  2.7252679894470682e-05  2.5146511807473958e-05  2.0962693978724459e-05  1.6930488903873317e-05  1.3295589830981958e-05  1.0052775732271046e-05  7.1600201098294926e-06  4.5910823951285878e-06  2.3140693240070525e-06  2.9978839518678010e-07  -1.4791706359919985e-06  -3.0478530264693826e-06  -4.4287842075589840e-06  -5.6419383398398920e-06  -6.7048031694119720e-06  -7.6325352132948944e-06  -8.4381555431402231e-06  -9.1327645661533185e-06  -9.7257650860162519e-06  -1.0225100795652452e-05  -1.0637521909817232e-05  -1.0968910647068884e-05  -1.1224533700594086e-05  -1.1409033985143040e-05  -1.1525928843173688e-05  -1.1576728746535243e-05  -1.1560331470187186e-05  -1.1473154645875910e-05  -1.1309819583605806e-05  -1.1063831494102433e-05  -1.0727913209647236e-05  -1.0294002726689536e-05  -9.7530611586114712e-06  -9.0948090407316301e-06  -8.3074478415060976e-06  -7.3773881210103646e-06  -6.2889951629788273e-06  -5.0243721238796974e-06  -3.5632026116549482e-06  -1.8827017333047631e-06  4.2318726657209008e-08  2.2392496940981391e-06  4.7370603293415054e-06  7.5672029501773247e-06  1.0755322903478188e-05  1.4342869127824141e-05  1.8334625728117505e-05  2.2489078247230646e-05  2.4582281186691308e-05  2.7667783363767708e-05  2.5549474956895081e-05  2.1327104530125272e-05  1.7238927286691609e-05  1.3537258235250065e-05  1.0223310216391636e-05  7.2602128910790873e-06  4.6256940183305475e-06  2.2903125282406582e-06  2.2609864217995278e-07  -1.5940878198462055e-06  -3.1956746421787348e-06  -4.6019708966529426e-06  -5.8339437354605014e-06  -6.9101480540504749e-06  -7.8467928297461489e-06  -8.6578801201830782e-06  -9.3553830749627161e-06  -9.9494423151519758e-06  -1.0448583311402575e-05  -1.0859982710675307e-05  -1.1189923694120739e-05  -1.1444226620825756e-05  -1.1628499372048424e-05  -1.1747397811715384e-05  -1.1802911844489907e-05  -1.1793298597721546e-05  -1.1713606496945225e-05  -1.1557123099636465e-05  -1.1316463719501091e-05  -1.0983847365852087e-05  -1.0550870259079832e-05  -1.0008131818217510e-05  -9.3448757379675374e-06  -8.5486806969220414e-06  -7.6051965967462517e-06  -6.4979250026755036e-06  -5.2080632995801601e-06  -3.7144405852350801e-06  -1.9936032406054373e-06  -2.0062639637349650e-08  2.2332730764360941e-06  4.7942089325163060e-06  7.6919217111228965e-06  1.0948439064087351e-05  1.4600464093040389e-05  1.8646850875295986e-05  2.2840266725250629e-05  2.4948116811548490e-05  2.8008936802929728e-05  2.5881378301975929e-05  2.1629372883012108e-05  1.7497819429467452e-05  1.3743767295709289e-05  1.0373147639499673e-05  7.3530615263336466e-06  4.6644944796465580e-06  2.2801932817093637e-06  1.7344444860783655e-07  -1.6824141950676014e-06  -3.3129064741195617e-06  -4.7418223443221425e-06  -5.9908380146972931e-06  -7.0793276393291766e-06  -8.0243477040123953e-06  -8.8407214806992485e-06  -9.5411807332057440e-06  -1.0136529576631124e-05  -1.0635815902922367e-05  -1.1046539479356345e-05  -1.1375235563890353e-05  -1.1628047649152183e-05  -1.1811870690459064e-05  -1.1933261245595883e-05  -1.1994887918425680e-05  -1.1993688631419923e-05  -1.1922447022008865e-05  -1.1772776015890560e-05  -1.1536626635299874e-05  -1.1206116896278946e-05  -1.0772842832955105e-05  -1.0227279966540772e-05  -9.5583656547713446e-06  -8.7532031136968354e-06  -7.7968366533340439e-06  -6.6720842021655087e-06  -5.3594489308839146e-06  -3.8371448613910100e-06  -2.0813010529917260e-06  -6.6359036208148146e-08  2.2343197451513160e-06  4.8473803811047825e-06  7.7999886448851128e-06  1.1111200480552612e-05  1.4814025899252841e-05  1.8902915023526614e-05  2.3126397811268185e-05  2.5245563461544123e-05  2.8275575464214458e-05  2.6141265680586942e-05  2.1867331940461743e-05  1.7703460097124746e-05  1.3910014823108224e-05  1.0496281924413787e-05  7.4322862402556829e-06  4.7015276896550163e-06  2.2785408765192917e-06  1.3773151124883121e-07  -1.7470361603060068e-06  -3.4012213120514475e-06  -4.8488776507204230e-06  -6.1121548536657299e-06  -7.2110160556200472e-06  -8.1631541886638878e-06  -8.9840317181355057e-06  -9.6869959347610274e-06  -1.0283420428781556e-05  -1.0782826462357346e-05  -1.1192985515723069e-05  -1.1520558060573064e-05  -1.1771356520278846e-05  -1.1954101335064984e-05  -1.2078539636489130e-05  -1.2148172020296829e-05  -1.2157368734228442e-05  -1.2095260342794511e-05  -1.1951681214196908e-05  -1.1718632707576615e-05  -1.1388778878458854e-05  -1.0954078290198574e-05  -1.0405062159282349e-05  -9.7304725643613488e-06  -8.9170435325617441e-06  -7.9493415607406349e-06  -6.8096562998961619e-06  -5.4779743672870110e-06  -3.9320804251730645e-06  -2.1478556793120525e-06  -9.9788393497462466e-08  2.2382937599080123e-06  4.8920301763904611e-06  7.8869626504374356e-06  1.1239861800884496e-05  1.4981001811045176e-05  1.9101682334663173e-05  2.3347555901681819e-05  2.5475208868065180e-05  2.8467315572668966e-05  2.6328495224263801e-05  2.2039522056204713e-05  1.7853309870469280e-05  1.4032417061515615e-05  1.0588371624078481e-05  7.4932000017353788e-06  4.7321860812542191e-06  2.2811842811999005e-06  1.1547505549911060e-07  -1.7906160692918645e-06  -3.4624221564922206e-06  -4.9241189524814943e-06  -6.1981437911855088e-06  -7.3048443285778431e-06  -8.2623432451779215e-06  -9.0865444464218171e-06  -9.7912312958099499e-06  -1.0388200617635087e-05  -1.0887363683302585e-05  -1.1296817897190864e-05  -1.1623409408922244e-05  -1.1871461923872003e-05  -1.2052411497326513e-05  -1.2180485666473089e-05  -1.2259934349583884e-05  -1.2281252258353225e-05  -1.2227905155571447e-05  -1.2088496026106306e-05  -1.1856521588154239e-05  -1.1525853552335422e-05  -1.1088974312500342e-05  -1.0536485931706095e-05  -9.8569566307180106e-06  -9.0368166933613213e-06  -8.0602631781561012e-06  -6.9091962641226799e-06  -5.5632380185273991e-06  -3.9998869005170221e-06  -2.1948819911997816e-06  -1.2279030199772962e-07  2.2421794226372170e-06  4.9249099179372474e-06  7.9497706551719778e-06  1.1331932872844841e-05  1.5099798738120150e-05  1.9242569342019435e-05  2.3503997486595220e-05  2.5637647386897635e-05  2.8583912534587950e-05  2.6442662534368417e-05  2.2145014822402070e-05  1.7945726270023598e-05  1.4108608237863334e-05  1.0646485148214204e-05  7.5325586651988782e-06  4.7531924683458620e-06  2.2850626359432627e-06  1.0401670380292022e-07  -1.8152986066928459e-06  -3.4981003451783888e-06  -4.9686044856424451e-06  -6.2493956516451497e-06  -7.3610329423618912e-06  -8.3218807669873996e-06  -9.1480914974064967e-06  -9.8536889035423241e-06  -1.0450695594835409e-05  -1.0949246383015189e-05  -1.1357770209241796e-05  -1.1683396678776074e-05  -1.1928396187781295e-05  -1.2107962020962999e-05  -1.2239565717356697e-05  -1.2327930201781039e-05  -1.2361424709531145e-05  -1.2314697603500729e-05  -1.2176405196046626e-05  -1.1943573954012961e-05  -1.1611300705655468e-05  -1.1172326550114452e-05  -1.0617190282610008e-05  -9.9342766896397279e-06  -9.1097853367404090e-06  -8.1276648210910233e-06  -6.9695691691155120e-06  -5.6148988450482861e-06  -4.0409841705372822e-06  -2.2234863942510419e-06  -1.3702817614548665e-07  2.2439474988455375e-06  4.9438712046847249e-06  7.9864230618355362e-06  1.1385847198187009e-05  1.5169465128941925e-05  1.9325295849242557e-05  2.3595991361840357e-05  2.5733368279610532e-05  2.8625241278289694e-05  2.6483561351573732e-05  2.2183314522289531e-05  1.7979804931156114e-05  1.4137253057635521e-05  1.0668930757354483e-05  7.5484492876710366e-06  4.7625710973174294e-06  2.2882854558056457e-06  1.0166697487924314e-07  -1.8224991574312850e-06  -3.5093679627573333e-06  -4.9831536421504595e-06  -6.2664816830930184e-06  -7.3799785837588564e-06  -8.3420893482935452e-06  -9.1690499947929191e-06  -9.8749628306077236e-06  -1.0471919664289301e-05  -1.0970132807082905e-05  -1.1378154012827846e-05  -1.1703053219426436e-05  -1.1946452665138268e-05  -1.2124757109482224e-05  -1.2258882899300526e-05  -1.23