<?xml version="1.0"?>
<VTKFile type="UnstructuredGrid"  version="0.1"  >
<UnstructuredGrid>
<Piece  NumberOfPoints="1617" NumberOfCells="3072">
<Points>
<DataArray  type="Float64"  NumberOfComponents="3"  format="ascii">0 0 0  0.03125 0 0  0.0625 0 0  0.09375 0 0  0.125 0 0  0.15625 0 0  0.1875 0 0  0.21875 0 0  0.25 0 0  0.28125 0 0  0.3125 0 0  0.34375 0 0  0.375 0 0  0.40625 0 0  0.4375 0 0  0.46875 0 0  0.5 0 0  0.53125 0 0  0.5625 0 0  0.59375 0 0  0.625 0 0  0.65625 0 0  0.6875 0 0  0.71875 0 0  0.75 0 0  0.78125 0 0  0.8125 0 0  0.84375 0 0  0.875 0 0  0.90625 0 0  0.9375 0 0  0.96875 0 0  1 0 0  1.03125 0 0  1.0625 0 0  1.09375 0 0  1.125 0 0  1.15625 0 0  1.1875 0 0  1.21875 0 0  1.25 0 0  1.28125 0 0  1.3125 0 0  1.34375 0 0  1.375 0 0  1.40625 0 0  1.4375 0 0  1.46875 0 0  1.5 0 0  0 0.03125 0  0.03125 0.03125 0  0.0625 0.03125 0  0.09375 0.03125 0  0.125 0.03125 0  0.15625 0.03125 0  0.1875 0.03125 0  0.21875 0.03125 0  0.25 0.03125 0  0.28125 0.03125 0  0.3125 0.03125 0  0.34375 0.03125 0  0.375 0.03125 0  0.40625 0.03125 0  0.4375 0.03125 0  0.46875 0.03125 0  0.5 0.03125 0  0.53125 0.03125 0  0.5625 0.03125 0  0.59375 0.03125 0  0.625 0.03125 0  0.65625 0.03125 0  0.6875 0.03125 0  0.71875 0.03125 0  0.75 0.03125 0  0.78125 0.03125 0  0.8125 0.03125 0  0.84375 0.03125 0  0.875 0.03125 0  0.90625 0.03125 0  0.9375 0.03125 0  0.96875 0.03125 0  1 0.03125 0  1.03125 0.03125 0  1.0625 0.03125 0  1.09375 0.03125 0  1.125 0.03125 0  1.15625 0.03125 0  1.1875 0.03125 0  1.21875 0.03125 0  1.25 0.03125 0  1.28125 0.03125 0  1.3125 0.03125 0  1.34375 0.03125 0  1.375 0.03125 0  1.40625 0.03125 0  1.4375 0.03125 0  1.46875 0.03125 0  1.5 0.03125 0  0 0.0625 0  0.03125 0.0625 0  0.0625 0.0625 0  0.09375 0.0625 0  0.125 0.0625 0  0.15625 0.0625 0  0.1875 0.0625 0  0.21875 0.0625 0  0.25 0.0625 0  0.28125 0.0625 0  0.3125 0.0625 0  0.34375 0.0625 0  0.375 0.0625 0  0.40625 0.0625 0  0.4375 0.0625 0  0.46875 0.0625 0  0.5 0.0625 0  0.53125 0.0625 0  0.5625 0.0625 0  0.59375 0.0625 0  0.625 0.0625 0  0.65625 0.0625 0  0.6875 0.0625 0  0.71875 0.0625 0  0.75 0.0625 0  0.78125 0.0625 0  0.8125 0.0625 0  0.84375 0.0625 0  0.875 0.0625 0  0.90625 0.0625 0  0.9375 0.0625 0  0.96875 0.0625 0  1 0.0625 0  1.03125 0.0625 0  1.0625 0.0625 0  1.09375 0.0625 0  1.125 0.0625 0  1.15625 0.0625 0  1.1875 0.0625 0  1.21875 0.0625 0  1.25 0.0625 0  1.28125 0.0625 0  1.3125 0.0625 0  1.34375 0.0625 0  1.375 0.0625 0  1.40625 0.0625 0  1.4375 0.0625 0  1.46875 0.0625 0  1.5 0.0625 0  0 0.09375 0  0.03125 0.09375 0  0.0625 0.09375 0  0.09375 0.09375 0  0.125 0.09375 0  0.15625 0.09375 0  0.1875 0.09375 0  0.21875 0.09375 0  0.25 0.09375 0  0.28125 0.09375 0  0.3125 0.09375 0  0.34375 0.09375 0  0.375 0.09375 0  0.40625 0.09375 0  0.4375 0.09375 0  0.46875 0.09375 0  0.5 0.09375 0  0.53125 0.09375 0  0.5625 0.09375 0  0.59375 0.09375 0  0.625 0.09375 0  0.65625 0.09375 0  0.6875 0.09375 0  0.71875 0.09375 0  0.75 0.09375 0  0.78125 0.09375 0  0.8125 0.09375 0  0.84375 0.09375 0  0.875 0.09375 0  0.90625 0.09375 0  0.9375 0.09375 0  0.96875 0.09375 0  1 0.09375 0  1.03125 0.09375 0  1.0625 0.09375 0  1.09375 0.09375 0  1.125 0.09375 0  1.15625 0.09375 0  1.1875 0.09375 0  1.21875 0.09375 0  1.25 0.09375 0  1.28125 0.09375 0  1.3125 0.09375 0  1.34375 0.09375 0  1.375 0.09375 0  1.40625 0.09375 0  1.4375 0.09375 0  1.46875 0.09375 0  1.5 0.09375 0  0 0.125 0  0.03125 0.125 0  0.0625 0.125 0  0.09375 0.125 0  0.125 0.125 0  0.15625 0.125 0  0.1875 0.125 0  0.21875 0.125 0  0.25 0.125 0  0.28125 0.125 0  0.3125 0.125 0  0.34375 0.125 0  0.375 0.125 0  0.40625 0.125 0  0.4375 0.125 0  0.46875 0.125 0  0.5 0.125 0  0.53125 0.125 0  0.5625 0.125 0  0.59375 0.125 0  0.625 0.125 0  0.65625 0.125 0  0.6875 0.125 0  0.71875 0.125 0  0.75 0.125 0  0.78125 0.125 0  0.8125 0.125 0  0.84375 0.125 0  0.875 0.125 0  0.90625 0.125 0  0.9375 0.125 0  0.96875 0.125 0  1 0.125 0  1.03125 0.125 0  1.0625 0.125 0  1.09375 0.125 0  1.125 0.125 0  1.15625 0.125 0  1.1875 0.125 0  1.21875 0.125 0  1.25 0.125 0  1.28125 0.125 0  1.3125 0.125 0  1.34375 0.125 0  1.375 0.125 0  1.40625 0.125 0  1.4375 0.125 0  1.46875 0.125 0  1.5 0.125 0  0 0.15625 0  0.03125 0.15625 0  0.0625 0.15625 0  0.09375 0.15625 0  0.125 0.15625 0  0.15625 0.15625 0  0.1875 0.15625 0  0.21875 0.15625 0  0.25 0.15625 0  0.28125 0.15625 0  0.3125 0.15625 0  0.34375 0.15625 0  0.375 0.15625 0  0.40625 0.15625 0  0.4375 0.15625 0  0.46875 0.15625 0  0.5 0.15625 0  0.53125 0.15625 0  0.5625 0.15625 0  0.59375 0.15625 0  0.625 0.15625 0  0.65625 0.15625 0  0.6875 0.15625 0  0.71875 0.15625 0  0.75 0.15625 0  0.78125 0.15625 0  0.8125 0.15625 0  0.84375 0.15625 0  0.875 0.15625 0  0.90625 0.15625 0  0.9375 0.15625 0  0.96875 0.15625 0  1 0.15625 0  1.03125 0.15625 0  1.0625 0.15625 0  1.09375 0.15625 0  1.125 0.15625 0  1.15625 0.15625 0  1.1875 0.15625 0  1.21875 0.15625 0  1.25 0.15625 0  1.28125 0.15625 0  1.3125 0.15625 0  1.34375 0.15625 0  1.375 0.15625 0  1.40625 0.15625 0  1.4375 0.15625 0  1.46875 0.15625 0  1.5 0.15625 0  0 0.1875 0  0.03125 0.1875 0  0.0625 0.1875 0  0.09375 0.1875 0  0.125 0.1875 0  0.15625 0.1875 0  0.1875 0.1875 0  0.21875 0.1875 0  0.25 0.1875 0  0.28125 0.1875 0  0.3125 0.1875 0  0.34375 0.1875 0  0.375 0.1875 0  0.40625 0.1875 0  0.4375 0.1875 0  0.46875 0.1875 0  0.5 0.1875 0  0.53125 0.1875 0  0.5625 0.1875 0  0.59375 0.1875 0  0.625 0.1875 0  0.65625 0.1875 0  0.6875 0.1875 0  0.71875 0.1875 0  0.75 0.1875 0  0.78125 0.1875 0  0.8125 0.1875 0  0.84375 0.1875 0  0.875 0.1875 0  0.90625 0.1875 0  0.9375 0.1875 0  0.96875 0.1875 0  1 0.1875 0  1.03125 0.1875 0  1.0625 0.1875 0  1.09375 0.1875 0  1.125 0.1875 0  1.15625 0.1875 0  1.1875 0.1875 0  1.21875 0.1875 0  1.25 0.1875 0  1.28125 0.1875 0  1.3125 0.1875 0  1.34375 0.1875 0  1.375 0.1875 0  1.40625 0.1875 0  1.4375 0.1875 0  1.46875 0.1875 0  1.5 0.1875 0  0 0.21875 0  0.03125 0.21875 0  0.0625 0.21875 0  0.09375 0.21875 0  0.125 0.21875 0  0.15625 0.21875 0  0.1875 0.21875 0  0.21875 0.21875 0  0.25 0.21875 0  0.28125 0.21875 0  0.3125 0.21875 0  0.34375 0.21875 0  0.375 0.21875 0  0.40625 0.21875 0  0.4375 0.21875 0  0.46875 0.21875 0  0.5 0.21875 0  0.53125 0.21875 0  0.5625 0.21875 0  0.59375 0.21875 0  0.625 0.21875 0  0.65625 0.21875 0  0.6875 0.21875 0  0.71875 0.21875 0  0.75 0.21875 0  0.78125 0.21875 0  0.8125 0.21875 0  0.84375 0.21875 0  0.875 0.21875 0  0.90625 0.21875 0  0.9375 0.21875 0  0.96875 0.21875 0  1 0.21875 0  1.03125 0.21875 0  1.0625 0.21875 0  1.09375 0.21875 0  1.125 0.21875 0  1.15625 0.21875 0  1.1875 0.21875 0  1.21875 0.21875 0  1.25 0.21875 0  1.28125 0.21875 0  1.3125 0.21875 0  1.34375 0.21875 0  1.375 0.21875 0  1.40625 0.21875 0  1.4375 0.21875 0  1.46875 0.21875 0  1.5 0.21875 0  0 0.25 0  0.03125 0.25 0  0.0625 0.25 0  0.09375 0.25 0  0.125 0.25 0  0.15625 0.25 0  0.1875 0.25 0  0.21875 0.25 0  0.25 0.25 0  0.28125 0.25 0  0.3125 0.25 0  0.34375 0.25 0  0.375 0.25 0  0.40625 0.25 0  0.4375 0.25 0  0.46875 0.25 0  0.5 0.25 0  0.53125 0.25 0  0.5625 0.25 0  0.59375 0.25 0  0.625 0.25 0  0.65625 0.25 0  0.6875 0.25 0  0.71875 0.25 0  0.75 0.25 0  0.78125 0.25 0  0.8125 0.25 0  0.84375 0.25 0  0.875 0.25 0  0.90625 0.25 0  0.9375 0.25 0  0.96875 0.25 0  1 0.25 0  1.03125 0.25 0  1.0625 0.25 0  1.09375 0.25 0  1.125 0.25 0  1.15625 0.25 0  1.1875 0.25 0  1.21875 0.25 0  1.25 0.25 0  1.28125 0.25 0  1.3125 0.25 0  1.34375 0.25 0  1.375 0.25 0  1.40625 0.25 0  1.4375 0.25 0  1.46875 0.25 0  1.5 0.25 0  0 0.28125 0  0.03125 0.28125 0  0.0625 0.28125 0  0.09375 0.28125 0  0.125 0.28125 0  0.15625 0.28125 0  0.1875 0.28125 0  0.21875 0.28125 0  0.25 0.28125 0  0.28125 0.28125 0  0.3125 0.28125 0  0.34375 0.28125 0  0.375 0.28125 0  0.40625 0.28125 0  0.4375 0.28125 0  0.46875 0.28125 0  0.5 0.28125 0  0.53125 0.28125 0  0.5625 0.28125 0  0.59375 0.28125 0  0.625 0.28125 0  0.65625 0.28125 0  0.6875 0.28125 0  0.71875 0.28125 0  0.75 0.28125 0  0.78125 0.28125 0  0.8125 0.28125 0  0.84375 0.28125 0  0.875 0.28125 0  0.90625 0.28125 0  0.9375 0.28125 0  0.96875 0.28125 0  1 0.28125 0  1.03125 0.28125 0  1.0625 0.28125 0  1.09375 0.28125 0  1.125 0.28125 0  1.15625 0.28125 0  1.1875 0.28125 0  1.21875 0.28125 0  1.25 0.28125 0  1.28125 0.28125 0  1.3125 0.28125 0  1.34375 0.28125 0  1.375 0.28125 0  1.40625 0.28125 0  1.4375 0.28125 0  1.46875 0.28125 0  1.5 0.28125 0  0 0.3125 0  0.03125 0.3125 0  0.0625 0.3125 0  0.09375 0.3125 0  0.125 0.3125 0  0.15625 0.3125 0  0.1875 0.3125 0  0.21875 0.3125 0  0.25 0.3125 0  0.28125 0.3125 0  0.3125 0.3125 0  0.34375 0.3125 0  0.375 0.3125 0  0.40625 0.3125 0  0.4375 0.3125 0  0.46875 0.3125 0  0.5 0.3125 0  0.53125 0.3125 0  0.5625 0.3125 0  0.59375 0.3125 0  0.625 0.3125 0  0.65625 0.3125 0  0.6875 0.3125 0  0.71875 0.3125 0  0.75 0.3125 0  0.78125 0.3125 0  0.8125 0.3125 0  0.84375 0.3125 0  0.875 0.3125 0  0.90625 0.3125 0  0.9375 0.3125 0  0.96875 0.3125 0  1 0.3125 0  1.03125 0.3125 0  1.0625 0.3125 0  1.09375 0.3125 0  1.125 0.3125 0  1.15625 0.3125 0  1.1875 0.3125 0  1.21875 0.3125 0  1.25 0.3125 0  1.28125 0.3125 0  1.3125 0.3125 0  1.34375 0.3125 0  1.375 0.3125 0  1.40625 0.3125 0  1.4375 0.3125 0  1.46875 0.3125 0  1.5 0.3125 0  0 0.34375 0  0.03125 0.34375 0  0.0625 0.34375 0  0.09375 0.34375 0  0.125 0.34375 0  0.15625 0.34375 0  0.1875 0.34375 0  0.21875 0.34375 0  0.25 0.34375 0  0.28125 0.34375 0  0.3125 0.34375 0  0.34375 0.34375 0  0.375 0.34375 0  0.40625 0.34375 0  0.4375 0.34375 0  0.46875 0.34375 0  0.5 0.34375 0  0.53125 0.34375 0  0.5625 0.34375 0  0.59375 0.34375 0  0.625 0.34375 0  0.65625 0.34375 0  0.6875 0.34375 0  0.71875 0.34375 0  0.75 0.34375 0  0.78125 0.34375 0  0.8125 0.34375 0  0.84375 0.34375 0  0.875 0.34375 0  0.90625 0.34375 0  0.9375 0.34375 0  0.96875 0.34375 0  1 0.34375 0  1.03125 0.34375 0  1.0625 0.34375 0  1.09375 0.34375 0  1.125 0.34375 0  1.15625 0.34375 0  1.1875 0.34375 0  1.21875 0.34375 0  1.25 0.34375 0  1.28125 0.34375 0  1.3125 0.34375 0  1.34375 0.34375 0  1.375 0.34375 0  1
[...]
<PointData  Scalars="f_33"> 
<DataArray  type="Float64"  Name="f_33"  format="ascii">3.4274892399211118e-05  3.2573922444927559e-05  3.1737724969133253e-05  3.0727043783564806e-05  2.9577751509077548e-05  2.8292327728020682e-05  2.6924011366130861e-05  2.5517434836094493e-05  2.4105848047745472e-05  2.2711837641261278e-05  2.1349451406103410e-05  2.0026679090191958e-05  1.8747599656301389e-05  1.7513950047455240e-05  1.6326123565720802e-05  1.5183734015585052e-05  1.4085899683085117e-05  1.3031374624007049e-05  1.2018617776822996e-05  1.1045860291913597e-05  1.0111210110719230e-05  9.2128160582143431e-06  8.3490970165946252e-06  7.5190233400451306e-06  6.7224194540610447e-06  5.9602433518993418e-06  5.2347956624272112e-06  4.5498205237157852e-06  3.9104803112633759e-06  3.3232100728728902e-06  2.7954780446997552e-06  2.3354908474527004e-06  1.9518835653135744e-06  1.6534279438381276e-06  1.4487737449698663e-06  1.3462182171657426e-06  1.3534481664709673e-06  1.4771739297040129e-06  1.7224487972056517e-06  2.0915031894749752e-06  2.5818817298403464e-06  3.1832158182600932e-06  3.8759412744151953e-06  4.6191046357220206e-06  5.3785048618441048e-06  6.0144267185246176e-06  6.7125646865982144e-06  6.9943153396176191e-06  8.2554002864093873e-06  3.5109082808308779e-05  3.2625679206677114e-05  3.1815690739714483e-05  3.0771927866294622e-05  2.9615611480463872e-05  2.8307208962455207e-05  2.6917682311964158e-05  2.5495011631041103e-05  2.4072755317996844e-05  2.2672591553332976e-05  2.1307376537650168e-05  1.9983985366529177e-05  1.8705623710036988e-05  1.7473423219284474e-05  1.6287395647526302e-05  1.5146930445313075e-05  1.4051016160406941e-05  1.2998323057823016e-05  1.1987237882753608e-05  1.1015908710540177e-05  1.0082337158395179e-05  9.1845399833000265e-06  8.3207859718189547e-06  7.4898945567261616e-06  6.6915619929078590e-06  5.9266652053796480e-06  5.1974893718132053e-06  4.5078362762253753e-06  3.8629936995351167e-06  3.2695738159789503e-06  2.7352518781604255e-06  2.2684496915705132e-06  1.8780094012984497e-06  1.5728950193882583e-06  1.3619400662441639e-06  1.2536391211482741e-06  1.2559322743801044e-06  1.3758968460136589e-06  1.6191547638996998e-06  1.9887331134163161e-06  2.4833649032095941e-06  3.0937503062676021e-06  3.8024631000723332e-06  4.5673313455095682e-06  5.3618327572958586e-06  6.0173448547096622e-06  6.7705036995571662e-06  6.9662007331152265e-06  8.9081606139843182e-06  3.5870686270944580e-05  3.3034072735207779e-05  3.2185473612739058e-05  3.0958387183120327e-05  2.9736906623782736e-05  2.8355048733747962e-05  2.6910226226440750e-05  2.5446154567002298e-05  2.3995105854681686e-05  2.2576409441230766e-05  2.1200487352547092e-05  1.9871957668935428e-05  1.8592202290981815e-05  1.7361011159999051e-05  1.6177479897147931e-05  1.5040402196173411e-05  1.3948380891649864e-05  1.2899814997897524e-05  1.1892859040807320e-05  1.0925412747206772e-05  9.9951790587724937e-06  9.0998153809802627e-06  8.2371870534349387e-06  7.4057088037351551e-06  6.6047320770953724e-06  5.8349129000764409e-06  5.0984878301635270e-06  4.3994007989727389e-06  3.7432569969572248e-06  3.1371186997047223e-06  2.5891885072273568e-06  2.1084404229710363e-06  1.7042575152189157e-06  1.3861227366561554e-06  1.1633858827657999e-06  1.0451079890482873e-06  1.0399280227427736e-06  1.1558651924460460e-06  1.3998291604861321e-06  1.7765570899319020e-06  2.2868865617324657e-06  2.9236962100985701e-06  3.6719458102330597e-06  4.4890539764117773e-06  5.3531967295606453e-06  6.0726803541355803e-06  6.9537218961333110e-06  7.2418772262116543e-06  9.7201955895545979e-06  3.6513522603724355e-05  3.3592614621870115e-05  3.2730671216766670e-05  3.1318629024116649e-05  3.0001408559160170e-05  2.8511897131639805e-05  2.6984224847752899e-05  2.5453705609286676e-05  2.3952640833698956e-05  2.2497977503943368e-05  2.1097488711888298e-05  1.9753115423648180e-05  1.8463909605040827e-05  1.7227807601225149e-05  1.6042531013901287e-05  1.4905899563013489e-05  1.3815832419510341e-05  1.2770222582957035e-05  1.1766794362098248e-05  1.0803009082477508e-05  9.8760643878783688e-06  8.9830220373249629e-06  8.1210828153285074e-06  7.2879966454223763e-06  6.4825536055616105e-06  5.7050624953908818e-06  4.9577094378317739e-06  4.2447126291054202e-06  3.5722431275397469e-06  2.9481417606968359e-06  2.3815052711306363e-06  1.8822304708547623e-06  1.4605959917678765e-06  1.1269388943783366e-06  8.9145107529081641e-07  7.6409192652603770e-07  7.5455155813487833e-07  8.7215656701748317e-07  1.1254606240845635e-06  1.5211776449134494e-06  2.0623409498164770e-06  2.7438681295252748e-06  3.5522970797318737e-06  4.4451175014654826e-06  5.4006089215868618e-06  6.2242398945646285e-06  7.2399074011668358e-06  7.6880549769795507e-06  1.0370636306577934e-05  3.7185454354902372e-05  3.4242047882898799e-05  3.3333152105412325e-05  3.1793097539122618e-05  3.0371895051644072e-05  2.8765482259082566e-05  2.7141518395608744e-05  2.5528524409434988e-05  2.3961768828663436e-05  2.2456649937863894e-05  2.1018887039085774e-05  1.9647982421811440e-05  1.8340639254815847e-05  1.7092765970659965e-05  1.5900461202610858e-05  1.4760307752358331e-05  1.3669298747473795e-05  1.2624609744625406e-05  1.1623346086025412e-05  1.0662344341869353e-05  9.7380891170662797e-06  8.8468010679575490e-06  7.9847364649374589e-06  7.1486970102000825e-06  6.3366803197845381e-06  5.5485315541335053e-06  4.7864273165829713e-06  4.0550622271064304e-06  3.3615014622996467e-06  2.7147611322382109e-06  2.1252393679123364e-06  1.6041316896088503e-06  1.1629371424925138e-06  8.1311991851923409e-07  5.6594439080194140e-07  4.3246409977325213e-07  4.2357681219610995e-07  5.5000928997768857e-07  8.2193524244885151e-07  1.2478462698658262e-06  1.8325049241222602e-06  2.5721946545634522e-06  3.4539869584758282e-06  4.4349066533730401e-06  5.4917716132977168e-06  6.4291167297845660e-06  7.5713071794435358e-06  8.1508580255048857e-06  1.0930689359176823e-05  3.7875451104350820e-05  3.4918712726758722e-05  3.3961180043551176e-05  3.2329350464328248e-05  3.0808415870982508e-05  2.9091901197651751e-05  2.7369091001988234e-05  2.5667112843737450e-05  2.4026106575366814e-05  2.2461026417167865e-05  2.0976581974665179e-05  1.9570477217308660e-05  1.8237406065415151e-05  1.6971370439138742e-05  1.5766818531542010e-05  1.4618990638356070e-05  1.3523819137882330e-05  1.2477625526195721e-05  1.1476762470056110e-05  1.0517296468690907e-05  9.5948157706091245e-06  8.7044546251964061e-06  7.8412161836973795e-06  7.0006219536524837e-06  6.1796034408536820e-06  5.3774216142831142e-06  4.5963371904750601e-06  3.8418236281147958e-06  3.1222837868053293e-06  2.4483984471755706e-06  1.8323180098231786e-06  1.2868981670456213e-06  8.2511503961352287e-07  4.5972054799479543e-07  2.0313292831994025e-07  6.7512499019748904e-08  6.4902914506099845e-08  2.0726916422697864e-07  5.0610243202966018e-07  9.7118454856029321e-07  1.6083172167462946e-06  2.4142764466497524e-06  3.3757081820640611e-06  4.4482131078007191e-06  5.6059126030913576e-06  6.6505216821044627e-06  7.8995001243059690e-06  8.5760771261119076e-06  1.1407764779936531e-05  3.8558798639204247e-05  3.5590409667028290e-05  3.4590897786130051e-05  3.2887708596104318e-05  3.1278798209659436e-05  2.9464742215979765e-05  2.7647504801364322e-05  2.5857499110450299e-05  2.4139953020147791e-05  2.2510539137769008e-05  2.0974013486147989e-05  1.9527020649573981e-05  1.8162757115530700e-05  1.6873618600014436e-05  1.5652537889983614e-05  1.4493443362452290e-05  1.3391181164268141e-05  1.2341171436247603e-05  1.1338957581520441e-05  1.0379757207468195e-05  9.4581258870681240e-06  8.5678761237887940e-06  7.7024079062868611e-06  6.8555471470092639e-06  6.0228041572330966e-06  5.2027160291042052e-06  4.3977986350558558e-06  3.6147606460286054e-06  2.8639554749422175e-06  2.1583393943886667e-06  1.5123043918963949e-06  9.4068115892718322e-07  4.5806652483831276e-07  7.8505338102094425e-08  -1.8452720817693937e-07  -3.1794010548117746e-07  -3.0879641622907840e-07  -1.4423760613913413e-07  1.8808372212238692e-07  6.9864437084015270e-07  1.3935608952540690e-06  2.2692937815812101e-06  3.3112217652286674e-06  4.4727003799489871e-06  5.7241438652025181e-06  6.8631229072450218e-06  8.1984235580360212e-06  8.9461426929167430e-06  1.1809437477958897e-05  3.9215985829677816e-05  3.6237277848522400e-05  3.5202957170766806e-05  3.3442232520479876e-05  3.1758806169659217e-05  2.9860327701881610e-05  2.7957188557495437e-05  2.6084871769235708e-05  2.4293172371816249e-05  2.2599452374266412e-05  2.1009270757477021e-05  1.9518867223384770e-05  1.8120473499545477e-05  1.6805242929416366e-05  1.5564814550685700e-05  1.4391922910071315e-05  1.3280383946104668e-05  1.2224746364781228e-05  1.1219767680195114e-05  1.0259820191251164e-05  9.3383606229995352e-06  8.4476684382441366e-06  7.5791317526343252e-06  6.7243268795556722e-06  5.8768415454955808e-06  5.0343084451177506e-06  4.1997975942470486e-06  3.3819598611907306e-06  2.5939663903056496e-06  1.8518136449040490e-06  1.1726401904962113e-06  5.7346528709574740e-07  7.0478845983919214e-08  -3.2117286260817179e-07  -5.8724661674345159e-07  -7.1406781745143649e-07  -6.8819990388382869e-07  -4.9633828091296913e-07  -1.2579322570047255e-07  4.3402327576881394e-07  1.1889074970446905e-06  2.1343584465616342e-06  3.2538865594727235e-06  4.4980707756524726e-06  5.8331838396619146e-06  7.0523579169607715e-06  8.4564121780326802e-06  9.2572073092125411e-06  1.2141908642843656e-05  3.9832630481248732e-05  3.6845132079495362e-05  3.5782450000238018e-05  3.3974837802025187e-05  3.2229343739574164e-05  3.0258989405306427e-05  2.8280403053107525e-05  2.6334060882048798e-05  2.4473780822765055e-05  2.2719153020813818e-05  2.1076949024003035e-05  1.9543509661253829e-05  1.8110557531813849e-05  1.6768349426590953e-05  1.5507472673614607e-05  1.4319620178056787e-05  1.3197673568861009e-05  1.2135386152683066e-05  1.1126818805884025e-05  1.0165590627467437e-05  9.2440924351245620e-06  8.3529111695406606e-06  7.4809384860968284e-06  6.6167213088843044e-06  5.7511629299751177e-06  4.8807360874927748e-06  4.0095942767398262e-06  3.1494621760855902e-06  2.3175764993327264e-06  1.5339100345430502e-06  8.1879921631804246e-07  1.9146501264907914e-07  -3.3059019174077388e-07  -7.3154891578666172e-07  -9.9688057121467507e-07  -1.1128094837343618e-06  -1.0658728002259162e-06  -8.4279249909843264e-07  -4.3101922731695312e-07  1.7965376603577989e-07  9.9422041287149153e-07  2.0067848606771763e-06  3.1986580652808552e-06  4.5174610527756096e-06  5.9253927812039461e-06  7.2115617848736924e-06  8.6703023093033873e-06  9.5115416664266518e-06  1.2411792968339856e-05  4.0397711486701287e-05  3.7402968770678917e-05  3.6317500417849233e-05  3.4471756537259816e-05  3.2675190408812335e-05  3.0644643735147537e-05  2.8601557115046261e-05  2.6590698269534765e-05  2.4669409048428952e-05  2.2859621686888519e-05  2.1169487252728332e-05  1.9595791253731299e-05  1.8130085648531135e-05  1.6762020135536928e-05  1.5481350592500475e-05  1.4278873736863891e-05  1.3146630700213368e-05  1.2077659516369702e-05  1.1065448435886975e-05  1.0103034830126116e-05  9.1819173407723568e-06  8.2909397994632031e-06  7.4159363420829731e-06  6.5412851561850931e-06  5.6539721294525778e-06  4.7489228814074295e-06  3.8323439896656772e-06  2.9209012991378275e-06  2.0376916876690764e-06  1.2077226388343889e-06  4.5475790927852896e-07  -2.0013498622809206e-07  -7.3877821127434410e-07  -1.1453814781582021e-06  -1.4057726023149130e-06  -1.5066331693973673e-06  -1.4349533286527820e-06  -1.1779048515741267e-06  -7.2346434162813599e-07  -6.2157537451454619e-08  8.0990741121247267e-07  1.8852250694429410e-06  3.1428287552111027e-06  4.5274881512128714e-06  5.9977253632619280e-06  7.3393410041687928e-06  8.8416830469374132e-06  9.7142857589452258e-06  1.2626328320164107e-05  4.0902386259074078e-05  3.7901841056188299e-05  3.6798360998170419e-05  3.4921934676139871e-05  3.3083957453367229e-05  3.1003936379852245e-05  2.8907074684094117e-05  2.6841641643657175e-05  2.4867998820051171e-05  2.3010275705023405e-05  2.1278021956475600e-05  1.9668661665153076e-05  1.8173806028486191e-05  1.6782726507402804e-05  1.5484532818317078e-05  1.4269246786981359e-05  1.3128131862197980e-05  1.2053552579520357e-05  1.1038530015362414e-05  1.0075730062689042e-05  9.1561276322295313e-06  8.2669807783696301e-06  7.3904968197047426e-06  6.5051927334559983e-06  5.5920294070443926e-06  4.6437823120786899e-06  3.6705590746231584e-06  2.6971087713075718e-06  1.7548825957185935e-06  8.7486705022121069e-07  8.3918896766971491e-08  -5.9601252555797565e-07  -1.1471582436193675e-06  -1.5546999138088823e-06  -1.8055551400455259e-06  -1.8874011208751669e-06  -1.7880773140879631e-06  -1.4955075651145364e-06  -9.9843298012240413e-07  -2.8829501370966355e-07  6.3758172908186462e-07  1.7700648540329970e-06  3.0860346548087101e-06  4.5277102124915146e-06  6.0504946538580400e-06  7.4376420893298832e-06  8.9747826046900973e-06  9.8719705396332398e-06  1.2793166541109768e-05  4.1339335472399655e-05  3.8334287747406044e-05  3.7216883100579761e-05  3.5316234163475291e-05  3.3445373245704244e-05  3.1325643674302846e-05  2.9185192460873565e-05  2.7075065617364736e-05  2.5058139853389608e-05  2.3160478448467922e-05  2.1392953290347249e-05  1.9753706958036324e-05  1.8234561745179790e-05  1.6824594759275616e-05  1.5512433612271523e-05  1.4287434698711936e-05  1.3140118143718393e-05  1.2062156428014162e-05  1.1046115633937490e-05  1.0084445885426441e-05  9.1681879236666294e-06  8.2835013695778380e-06  7.4086785346566176e-06  6.5138599402681913e-06  5.5702256908142454e-06  4.5675203715202597e-06  3.5233687989471579e-06  2.4758634750569715e-06  1.4679415272046689e-06  5.3675197933676682e-07  -2.8922187525021816e-07  -9.8896523602745644e-07  -1.5466310170260953e-06  -1.9494235179723515e-06  -2.1860050690742251e-06  -2.2454304768522402e-06  -2.1166045051425691e-06  -1.7883242891015438e-06  -1.2501580015188339e-06  -4.9447476237462893e-07  4.8023669888556448e-07  1.6633578538966355e-06  3.0298824158199531e-06  4.5198855198633877e-06  6.0862541228754923e-06  7.5103780432518688e-06  9.0751727482099191e-06  9.9916745246161308e-06  1.2920028714104064e-05  4.1702431932462224e-05  3.8694041758822968e-05  3.7566231313125513e-05  3.5647040950157002e-05  3.3750878485373320e-05  3.1600323116901293e-05  2.9425796606302126e-05  2.7280486835035416e-05  2.5229298212112297e-05  2.3299916751938578e-05  2.1504396097815849e-05  1.9841600478110396e-05  1.8303663385075362e-05  1.6879626533974616e-05  1.5557805664445860e-05  1.4327028453904696e-05  1.3177129049678718e-05  1.2099043540166576e-05  1.1084748214298929e-05  1.0126438300770892e-05  9.2158889255081830e-06  8.3390197433362884e-06  7.4710359303871515e-06  6.5699557019180600e-06  5.5904931847975924e-06  4.5184150312246617e-06  3.3857892350292716e-06  2.2524362593622719e-06  1.1757799892687923e-06  1.9723579461563586e-07  -6.5634870036247761e-07  -1.3675581700021438e-06  -1.9241113536488128e-06  -2.3160678723466619e-06  -2.5341696805379645e-06  -2.5689247929612446e-06  -2.4102622495428679e-06  -2.0477653019481792e-06  -1.4717198550518354e-06  -6.7528769918645109e-07  3.4205889192602865e-07  1.5684645288015155e-06  2.9773848464545856e-06  4.5071952253433606e-06  6.1088462529656552e-06  7.5624195375843670e-06  9.1488902734041520e-06  1.0080418555643176e-05  1.3014324635026473e-05  4.1986604416928393e-05  3.8975909371937634e-05  3.7840758095890713e-05  3.5908094310659850e-05  3.3993437697873244e-05  3.1820156510992375e-05  2.9620371762868575e-05  2.7448854554658439e-05  2.5372070087186923e-05  2.3418994245860709e-05  2.1602674360737791e-05  1.9922641760854348e-05  1.8371396583545352e-05  1.6938083842247533e-05  1.5610896890606113e-05  1.4378336899946339e-05  1.3229715608385542e-05  1.2155279151069130e-05  1.1146223643205264e-05  1.0194207239606367e-05  9.2919801522639373e-06  8.4261298469038457e-06  7.5722222568368681e-06  6.6706135195259428e-06  5.6490679483661139e-06  4.4892502192810797e-06  3.2493038127705300e-06  2.0226972338098674e-06  8.8211741290754461e-07  -1.3263255310937740e-07  -1.0015183024182701e-06  -1.7135300728379540e-06  -2.2610056987871835e-06  -2.6370051241345104e-06  -2.8341306208076817e-06  -2.8440299124638381e-06  -2.6573561710222258e-06  -2.2642181916576642e-06  -1.6553879424759376e-06  -8.2459203264034379e-07  2.2796775057237604e-07  1.4895026722402637e-06  2.9323084104964804e-06  4.4934947993639901e-06  6.1225986694463091e-06  7.5988165786929667e-06  9.2017786280536736e-06  1.0144680806027377e-05  1.3082773749363464e-05  4.2187815355867852e-05  3.9175754644642250e-05  3.8035983051441381e-05  3.6094448726826106e-05  3.4167496913748722e-05  3.1978937985579044e-05  2.9762069473911972e-05  2.7572739865356700e-05  2.5478520794180322e-05  2.3509327357233316e-05  2.1678968178319236e-05  1.9987528545018974e-05  1.8427871271455649e-05  1.6989336650834294e-05  1.5660170486638813e-05  1.4428792662081055e-05  1.3284286366657336e-05  1.2216478119607429e-05  1.1215869666106873e-05  1.0273393852319378e-05  9.3819576278934061e-06  8.5287887880635088e-06  7.6961917528509723e-06  6.8000086237790752e-06  5.7310437420737142e-06  4.4680385156965646e-06  3.1078811875413675e-06  1.7922095774570724e-06  6.0448627706062043e-07  -4.2799580425097628e-07  -1.2973662416751144e-06  -2.0002190118324203e-06  -2.5330416134880843e-06  -2.8910376255690591e-06  -3.0678898163354718e-06  -3.0557880498489250e-06  -2.8456757783103153e-06  -2.4278661643299936e-06  -1.7933561956840131e-06  -9.3619169038467468e-07  1.4296237454016587e-07  1.4306915163510899e-06  2.8984989853082373e-06  4.4826251629310955e-06  6.1316468499820448e-06  7.6241789822695741e-06  9.2389680905402834e-06  1.0189992470714437e-05  1.3131058170384715e-05  4.2303096271734201e-05  3.9290539691804157e-05  3.8148632029915493e-05  3.6202510395505303e-05  3.4269028859991850e-05  3.2072153843865063e-05  2.9845861101177420e-05  2.7646601678194517e-05  2.5542602024797114e-05  2.3564346498048752e-05  2.1726128287535632e-05  2.0028409215524217e-05  1.8464330450721546e-05  1.7023428124970499e-05  1.5694081363350725e-05  1.4464795511019646e-05  1.3324692200517997e-05  1.2263554492394228e-05  1.1271662213902780e-05  1.0339591961923209e-05  9.4593309541142813e-06  8.6182769215509718e-06  7.8095874246580657e-06  6.9178866295601573e-06  5.8058684201214882e-06  4.4503419521000347e-06  2.9769518358884075e-06  1.5940799088369245e-06  3.8605321269745847e-07  -6.4528228143373337e-07  -1.5047903830919809e-06  -2.1945166821501011e-06  -2.7129915625180714e-06  -3.0561171408106548e-06  -3.2177614350100144e-06  -3.1901174561616198e-06  -2.9640866047223499e-06  -2.5299600268744192e-06  -1.8787721206127853e-06  -1.0046943067042513e-06  9.1375040170241521e-08  1.3956731398525024e-06  2.8792454612313551e-06  4.4778117404857873e-06  6.1393783308526013e-06  7.6421867262234208e-06  9.2644663707120123e-06  1.0220608709328552e-05  1.3163528263873714e-05  4.2330598878973169e-05  3.9318380621788968e-05  3.8176696266681180e-05  3.6230101479339794e-05  3.4295612535095443e-05  3.2097096778628935e-05  2.9868716521755285e-05  2.7667065902667636e-05  2.5560573047037041e-05  2.3579906759222408e-05  2.1739534251373680e-05  2.0040063641479369e-05  1.8474755379578034e-05  1.7033240470381723e-05  1.5703975554082000e-05  1.4475534551779776e-05  1.3337105125049908e-05  1.2278532692325204e-05  1.1290141494722875e-05  1.0362566249450578e-05  9.4871390182417009e-06  8.6524261405587105e-06  7.8574024208638603e-06  6.9753630854539215e-06  5.8418889842244982e-06  4.4533664613381082e-06  2.9267150235926607e-06  1.5062793245304267e-06  2.9687970186939930e-07  -7.2936521439246634e-07  -1.5821636353842609e-06  -2.2652321209933922e-06  -2.7773679463200025e-06  -3.1144106124532636e-06  -3.2701074952985859e-06  -3.2365410116335578e-06  -3.0045257084406200e-06  -2.5642936022567150e-06  -1.9068516116222976e-06  -1.0263821438915565e-06  7.6161100100704735e-08  1.38690718658526