<?xml version="1.0"?>
<VTKFile type="UnstructuredGrid"  version="0.1"  >
<UnstructuredGrid>
<Piece  NumberOfPoints="1617" NumberOfCells="3072">
<Points>
<DataArray  type="Float64"  NumberOfComponents="3"  format="ascii">0 0 0  0.03125 0 0  0.0625 0 0  0.09375 0 0  0.125 0 0  0.15625 0 0  0.1875 0 0  0.21875 0 0  0.25 0 0  0.28125 0 0  0.3125 0 0  0.34375 0 0  0.375 0 0  0.40625 0 0  0.4375 0 0  0.46875 0 0  0.5 0 0  0.53125 0 0  0.5625 0 0  0.59375 0 0  0.625 0 0  0.65625 0 0  0.6875 0 0  0.71875 0 0  0.75 0 0  0.78125 0 0  0.8125 0 0  0.84375 0 0  0.875 0 0  0.90625 0 0  0.9375 0 0  0.96875 0 0  1 0 0  1.03125 0 0  1.0625 0 0  1.09375 0 0  1.125 0 0  1.15625 0 0  1.1875 0 0  1.21875 0 0  1.25 0 0  1.28125 0 0  1.3125 0 0  1.34375 0 0  1.375 0 0  1.40625 0 0  1.4375 0 0  1.46875 0 0  1.5 0 0  0 0.03125 0  0.03125 0.03125 0  0.0625 0.03125 0  0.09375 0.03125 0  0.125 0.03125 0  0.15625 0.03125 0  0.1875 0.03125 0  0.21875 0.03125 0  0.25 0.03125 0  0.28125 0.03125 0  0.3125 0.03125 0  0.34375 0.03125 0  0.375 0.03125 0  0.40625 0.03125 0  0.4375 0.03125 0  0.46875 0.03125 0  0.5 0.03125 0  0.53125 0.03125 0  0.5625 0.03125 0  0.59375 0.03125 0  0.625 0.03125 0  0.65625 0.03125 0  0.6875 0.03125 0  0.71875 0.03125 0  0.75 0.03125 0  0.78125 0.03125 0  0.8125 0.03125 0  0.84375 0.03125 0  0.875 0.03125 0  0.90625 0.03125 0  0.9375 0.03125 0  0.96875 0.03125 0  1 0.03125 0  1.03125 0.03125 0  1.0625 0.03125 0  1.09375 0.03125 0  1.125 0.03125 0  1.15625 0.03125 0  1.1875 0.03125 0  1.21875 0.03125 0  1.25 0.03125 0  1.28125 0.03125 0  1.3125 0.03125 0  1.34375 0.03125 0  1.375 0.03125 0  1.40625 0.03125 0  1.4375 0.03125 0  1.46875 0.03125 0  1.5 0.03125 0  0 0.0625 0  0.03125 0.0625 0  0.0625 0.0625 0  0.09375 0.0625 0  0.125 0.0625 0  0.15625 0.0625 0  0.1875 0.0625 0  0.21875 0.0625 0  0.25 0.0625 0  0.28125 0.0625 0  0.3125 0.0625 0  0.34375 0.0625 0  0.375 0.0625 0  0.40625 0.0625 0  0.4375 0.0625 0  0.46875 0.0625 0  0.5 0.0625 0  0.53125 0.0625 0  0.5625 0.0625 0  0.59375 0.0625 0  0.625 0.0625 0  0.65625 0.0625 0  0.6875 0.0625 0  0.71875 0.0625 0  0.75 0.0625 0  0.78125 0.0625 0  0.8125 0.0625 0  0.84375 0.0625 0  0.875 0.0625 0  0.90625 0.0625 0  0.9375 0.0625 0  0.96875 0.0625 0  1 0.0625 0  1.03125 0.0625 0  1.0625 0.0625 0  1.09375 0.0625 0  1.125 0.0625 0  1.15625 0.0625 0  1.1875 0.0625 0  1.21875 0.0625 0  1.25 0.0625 0  1.28125 0.0625 0  1.3125 0.0625 0  1.34375 0.0625 0  1.375 0.0625 0  1.40625 0.0625 0  1.4375 0.0625 0  1.46875 0.0625 0  1.5 0.0625 0  0 0.09375 0  0.03125 0.09375 0  0.0625 0.09375 0  0.09375 0.09375 0  0.125 0.09375 0  0.15625 0.09375 0  0.1875 0.09375 0  0.21875 0.09375 0  0.25 0.09375 0  0.28125 0.09375 0  0.3125 0.09375 0  0.34375 0.09375 0  0.375 0.09375 0  0.40625 0.09375 0  0.4375 0.09375 0  0.46875 0.09375 0  0.5 0.09375 0  0.53125 0.09375 0  0.5625 0.09375 0  0.59375 0.09375 0  0.625 0.09375 0  0.65625 0.09375 0  0.6875 0.09375 0  0.71875 0.09375 0  0.75 0.09375 0  0.78125 0.09375 0  0.8125 0.09375 0  0.84375 0.09375 0  0.875 0.09375 0  0.90625 0.09375 0  0.9375 0.09375 0  0.96875 0.09375 0  1 0.09375 0  1.03125 0.09375 0  1.0625 0.09375 0  1.09375 0.09375 0  1.125 0.09375 0  1.15625 0.09375 0  1.1875 0.09375 0  1.21875 0.09375 0  1.25 0.09375 0  1.28125 0.09375 0  1.3125 0.09375 0  1.34375 0.09375 0  1.375 0.09375 0  1.40625 0.09375 0  1.4375 0.09375 0  1.46875 0.09375 0  1.5 0.09375 0  0 0.125 0  0.03125 0.125 0  0.0625 0.125 0  0.09375 0.125 0  0.125 0.125 0  0.15625 0.125 0  0.1875 0.125 0  0.21875 0.125 0  0.25 0.125 0  0.28125 0.125 0  0.3125 0.125 0  0.34375 0.125 0  0.375 0.125 0  0.40625 0.125 0  0.4375 0.125 0  0.46875 0.125 0  0.5 0.125 0  0.53125 0.125 0  0.5625 0.125 0  0.59375 0.125 0  0.625 0.125 0  0.65625 0.125 0  0.6875 0.125 0  0.71875 0.125 0  0.75 0.125 0  0.78125 0.125 0  0.8125 0.125 0  0.84375 0.125 0  0.875 0.125 0  0.90625 0.125 0  0.9375 0.125 0  0.96875 0.125 0  1 0.125 0  1.03125 0.125 0  1.0625 0.125 0  1.09375 0.125 0  1.125 0.125 0  1.15625 0.125 0  1.1875 0.125 0  1.21875 0.125 0  1.25 0.125 0  1.28125 0.125 0  1.3125 0.125 0  1.34375 0.125 0  1.375 0.125 0  1.40625 0.125 0  1.4375 0.125 0  1.46875 0.125 0  1.5 0.125 0  0 0.15625 0  0.03125 0.15625 0  0.0625 0.15625 0  0.09375 0.15625 0  0.125 0.15625 0  0.15625 0.15625 0  0.1875 0.15625 0  0.21875 0.15625 0  0.25 0.15625 0  0.28125 0.15625 0  0.3125 0.15625 0  0.34375 0.15625 0  0.375 0.15625 0  0.40625 0.15625 0  0.4375 0.15625 0  0.46875 0.15625 0  0.5 0.15625 0  0.53125 0.15625 0  0.5625 0.15625 0  0.59375 0.15625 0  0.625 0.15625 0  0.65625 0.15625 0  0.6875 0.15625 0  0.71875 0.15625 0  0.75 0.15625 0  0.78125 0.15625 0  0.8125 0.15625 0  0.84375 0.15625 0  0.875 0.15625 0  0.90625 0.15625 0  0.9375 0.15625 0  0.96875 0.15625 0  1 0.15625 0  1.03125 0.15625 0  1.0625 0.15625 0  1.09375 0.15625 0  1.125 0.15625 0  1.15625 0.15625 0  1.1875 0.15625 0  1.21875 0.15625 0  1.25 0.15625 0  1.28125 0.15625 0  1.3125 0.15625 0  1.34375 0.15625 0  1.375 0.15625 0  1.40625 0.15625 0  1.4375 0.15625 0  1.46875 0.15625 0  1.5 0.15625 0  0 0.1875 0  0.03125 0.1875 0  0.0625 0.1875 0  0.09375 0.1875 0  0.125 0.1875 0  0.15625 0.1875 0  0.1875 0.1875 0  0.21875 0.1875 0  0.25 0.1875 0  0.28125 0.1875 0  0.3125 0.1875 0  0.34375 0.1875 0  0.375 0.1875 0  0.40625 0.1875 0  0.4375 0.1875 0  0.46875 0.1875 0  0.5 0.1875 0  0.53125 0.1875 0  0.5625 0.1875 0  0.59375 0.1875 0  0.625 0.1875 0  0.65625 0.1875 0  0.6875 0.1875 0  0.71875 0.1875 0  0.75 0.1875 0  0.78125 0.1875 0  0.8125 0.1875 0  0.84375 0.1875 0  0.875 0.1875 0  0.90625 0.1875 0  0.9375 0.1875 0  0.96875 0.1875 0  1 0.1875 0  1.03125 0.1875 0  1.0625 0.1875 0  1.09375 0.1875 0  1.125 0.1875 0  1.15625 0.1875 0  1.1875 0.1875 0  1.21875 0.1875 0  1.25 0.1875 0  1.28125 0.1875 0  1.3125 0.1875 0  1.34375 0.1875 0  1.375 0.1875 0  1.40625 0.1875 0  1.4375 0.1875 0  1.46875 0.1875 0  1.5 0.1875 0  0 0.21875 0  0.03125 0.21875 0  0.0625 0.21875 0  0.09375 0.21875 0  0.125 0.21875 0  0.15625 0.21875 0  0.1875 0.21875 0  0.21875 0.21875 0  0.25 0.21875 0  0.28125 0.21875 0  0.3125 0.21875 0  0.34375 0.21875 0  0.375 0.21875 0  0.40625 0.21875 0  0.4375 0.21875 0  0.46875 0.21875 0  0.5 0.21875 0  0.53125 0.21875 0  0.5625 0.21875 0  0.59375 0.21875 0  0.625 0.21875 0  0.65625 0.21875 0  0.6875 0.21875 0  0.71875 0.21875 0  0.75 0.21875 0  0.78125 0.21875 0  0.8125 0.21875 0  0.84375 0.21875 0  0.875 0.21875 0  0.90625 0.21875 0  0.9375 0.21875 0  0.96875 0.21875 0  1 0.21875 0  1.03125 0.21875 0  1.0625 0.21875 0  1.09375 0.21875 0  1.125 0.21875 0  1.15625 0.21875 0  1.1875 0.21875 0  1.21875 0.21875 0  1.25 0.21875 0  1.28125 0.21875 0  1.3125 0.21875 0  1.34375 0.21875 0  1.375 0.21875 0  1.40625 0.21875 0  1.4375 0.21875 0  1.46875 0.21875 0  1.5 0.21875 0  0 0.25 0  0.03125 0.25 0  0.0625 0.25 0  0.09375 0.25 0  0.125 0.25 0  0.15625 0.25 0  0.1875 0.25 0  0.21875 0.25 0  0.25 0.25 0  0.28125 0.25 0  0.3125 0.25 0  0.34375 0.25 0  0.375 0.25 0  0.40625 0.25 0  0.4375 0.25 0  0.46875 0.25 0  0.5 0.25 0  0.53125 0.25 0  0.5625 0.25 0  0.59375 0.25 0  0.625 0.25 0  0.65625 0.25 0  0.6875 0.25 0  0.71875 0.25 0  0.75 0.25 0  0.78125 0.25 0  0.8125 0.25 0  0.84375 0.25 0  0.875 0.25 0  0.90625 0.25 0  0.9375 0.25 0  0.96875 0.25 0  1 0.25 0  1.03125 0.25 0  1.0625 0.25 0  1.09375 0.25 0  1.125 0.25 0  1.15625 0.25 0  1.1875 0.25 0  1.21875 0.25 0  1.25 0.25 0  1.28125 0.25 0  1.3125 0.25 0  1.34375 0.25 0  1.375 0.25 0  1.40625 0.25 0  1.4375 0.25 0  1.46875 0.25 0  1.5 0.25 0  0 0.28125 0  0.03125 0.28125 0  0.0625 0.28125 0  0.09375 0.28125 0  0.125 0.28125 0  0.15625 0.28125 0  0.1875 0.28125 0  0.21875 0.28125 0  0.25 0.28125 0  0.28125 0.28125 0  0.3125 0.28125 0  0.34375 0.28125 0  0.375 0.28125 0  0.40625 0.28125 0  0.4375 0.28125 0  0.46875 0.28125 0  0.5 0.28125 0  0.53125 0.28125 0  0.5625 0.28125 0  0.59375 0.28125 0  0.625 0.28125 0  0.65625 0.28125 0  0.6875 0.28125 0  0.71875 0.28125 0  0.75 0.28125 0  0.78125 0.28125 0  0.8125 0.28125 0  0.84375 0.28125 0  0.875 0.28125 0  0.90625 0.28125 0  0.9375 0.28125 0  0.96875 0.28125 0  1 0.28125 0  1.03125 0.28125 0  1.0625 0.28125 0  1.09375 0.28125 0  1.125 0.28125 0  1.15625 0.28125 0  1.1875 0.28125 0  1.21875 0.28125 0  1.25 0.28125 0  1.28125 0.28125 0  1.3125 0.28125 0  1.34375 0.28125 0  1.375 0.28125 0  1.40625 0.28125 0  1.4375 0.28125 0  1.46875 0.28125 0  1.5 0.28125 0  0 0.3125 0  0.03125 0.3125 0  0.0625 0.3125 0  0.09375 0.3125 0  0.125 0.3125 0  0.15625 0.3125 0  0.1875 0.3125 0  0.21875 0.3125 0  0.25 0.3125 0  0.28125 0.3125 0  0.3125 0.3125 0  0.34375 0.3125 0  0.375 0.3125 0  0.40625 0.3125 0  0.4375 0.3125 0  0.46875 0.3125 0  0.5 0.3125 0  0.53125 0.3125 0  0.5625 0.3125 0  0.59375 0.3125 0  0.625 0.3125 0  0.65625 0.3125 0  0.6875 0.3125 0  0.71875 0.3125 0  0.75 0.3125 0  0.78125 0.3125 0  0.8125 0.3125 0  0.84375 0.3125 0  0.875 0.3125 0  0.90625 0.3125 0  0.9375 0.3125 0  0.96875 0.3125 0  1 0.3125 0  1.03125 0.3125 0  1.0625 0.3125 0  1.09375 0.3125 0  1.125 0.3125 0  1.15625 0.3125 0  1.1875 0.3125 0  1.21875 0.3125 0  1.25 0.3125 0  1.28125 0.3125 0  1.3125 0.3125 0  1.34375 0.3125 0  1.375 0.3125 0  1.40625 0.3125 0  1.4375 0.3125 0  1.46875 0.3125 0  1.5 0.3125 0  0 0.34375 0  0.03125 0.34375 0  0.0625 0.34375 0  0.09375 0.34375 0  0.125 0.34375 0  0.15625 0.34375 0  0.1875 0.34375 0  0.21875 0.34375 0  0.25 0.34375 0  0.28125 0.34375 0  0.3125 0.34375 0  0.34375 0.34375 0  0.375 0.34375 0  0.40625 0.34375 0  0.4375 0.34375 0  0.46875 0.34375 0  0.5 0.34375 0  0.53125 0.34375 0  0.5625 0.34375 0  0.59375 0.34375 0  0.625 0.34375 0  0.65625 0.34375 0  0.6875 0.34375 0  0.71875 0.34375 0  0.75 0.34375 0  0.78125 0.34375 0  0.8125 0.34375 0  0.84375 0.34375 0  0.875 0.34375 0  0.90625 0.34375 0  0.9375 0.34375 0  0.96875 0.34375 0  1 0.34375 0  1.03125 0.34375 0  1.0625 0.34375 0  1.09375 0.34375 0  1.125 0.34375 0  1.15625 0.34375 0  1.1875 0.34375 0  1.21875 0.34375 0  1.25 0.34375 0  1.28125 0.34375 0  1.3125 0.34375 0  1.34375 0.34375 0  1.375 0.34375 0  1
[...]
<PointData  Scalars="f_33"> 
<DataArray  type="Float64"  Name="f_33"  format="ascii">2.0668266471391748e-05  2.1334932029725245e-05  2.1682124292563817e-05  2.1587177285094159e-05  2.1200703147404963e-05  2.0671185067236705e-05  2.0061143123585259e-05  1.9413154568541796e-05  1.8754265485864341e-05  1.8099509896062853e-05  1.7455938298515851e-05  1.6825828077003082e-05  1.6208898976931976e-05  1.5603651166108813e-05  1.5008070753138099e-05  1.4419945619785522e-05  1.3836974016640207e-05  1.3256782581340762e-05  1.2676923075330259e-05  1.2094889584139777e-05  1.1508182648443288e-05  1.0914435627442059e-05  1.0311606242834084e-05  9.6982211812824679e-06  9.0736458779906568e-06  8.4383396438783258e-06  7.7940529269200220e-06  7.1439312096039094e-06  6.4925073328668569e-06  5.8455857247176248e-06  5.2100415975497482e-06  4.5935705338566748e-06  4.0044270816516441e-06  3.4511857988009404e-06  2.9425467558189103e-06  2.4871906739767485e-06  2.0936619172915417e-06  1.7702196116771288e-06  1.5245126714743184e-06  1.3628918566587945e-06  1.2889243409192817e-06  1.3011767187125258e-06  1.3890407053663810e-06  1.5293936869658618e-06  1.6758167937540587e-06  1.8103840216754326e-06  1.6061848749478578e-06  1.0336299180412429e-06  5.1299313045263605e-07  2.0359749959389762e-05  2.1163526276600699e-05  2.1628582046572290e-05  2.1563634854278366e-05  2.1146213477712531e-05  2.0600838672546977e-05  1.9981754430709941e-05  1.9329593647341419e-05  1.8670925080731933e-05  1.8019728410354388e-05  1.7381888912626004e-05  1.6758688077220785e-05  1.6149120868457323e-05  1.5551221731180357e-05  1.4962707213199684e-05  1.4381221814149266e-05  1.3804389876519156e-05  1.3229793620653454e-05  1.2654943164127957e-05  1.2077276347283015e-05  1.1494212936536549e-05  1.0903278567755452e-05  1.0302302114451417e-05  9.6896741955703516e-06  9.0646367182362375e-06  8.4275591845709745e-06  7.7801530407939083e-06  7.1255839360982196e-06  6.4684616975808828e-06  5.8147128146885977e-06  5.1713623934478259e-06  4.5462659721453837e-06  3.9478344210934946e-06  3.3847889767769266e-06  2.8659711223590490e-06  2.4002153323899101e-06  1.9962652634705342e-06  1.6626761216123975e-06  1.4075506959726507e-06  1.2379087021813473e-06  1.1581897009543110e-06  1.1679569085785435e-06  1.2572626609769207e-06  1.4036164002119732e-06  1.5563390567452417e-06  1.7076434574226956e-06  1.5039686449739190e-06  8.7702628081994639e-07  1.5499813438351408e-07  2.0137127107953879e-05  2.1038568193478488e-05  2.1626249483339274e-05  2.1634077192433259e-05  2.1182854631901572e-05  2.0608036329949428e-05  1.9959548009627430e-05  1.9283362691415785e-05  1.8608497537945097e-05  1.7948420448159844e-05  1.7307467128144951e-05  1.6685209539732910e-05  1.6079182609389988e-05  1.5486344476861187e-05  1.4903694558478869e-05  1.4328430417596534e-05  1.3757902203006490e-05  1.3189507176180424e-05  1.2620594519479505e-05  1.2048417158315616e-05  1.1470155322444539e-05  1.0883030001939142e-05  1.0284513318467077e-05  9.6726236952481116e-06  9.0462695210792162e-06  8.4055840355592385e-06  7.7521864009657411e-06  7.0893153565770127e-06  6.4218100955889835e-06  5.7559479811593190e-06  5.0991782094589592e-06  4.4598063347456392e-06  3.8466854406921645e-06  3.2689596320388480e-06  2.7358895252203348e-06  2.2567702786658603e-06  1.8409215885651145e-06  1.4976847236441574e-06  1.2362428074760089e-06  1.0650169055948177e-06  9.9000623612274186e-07  1.0121306408682844e-06  1.1215878764283793e-06  1.2940274489274438e-06  1.4722292820776299e-06  1.6402870621157514e-06  1.3807121648885950e-06  6.5281884809931175e-07  -2.4799956363004026e-07  2.0024053356992795e-05  2.0967628874921574e-05  2.1644564916739430e-05  2.1725939116949373e-05  2.1261271466101858e-05  2.0663809217872264e-05  1.9982032816222158e-05  1.9274254698919086e-05  1.8574444850836013e-05  1.7897168614138993e-05  1.7246076609025293e-05  1.6619320741794226e-05  1.6012912029847523e-05  1.5422508117502354e-05  1.4844128644825467e-05  1.4274285947084884e-05  1.3709862434809605e-05  1.3147916096545209e-05  1.2585501126190731e-05  1.2019548181464880e-05  1.1446836339745605e-05  1.0864084642765713e-05  1.0268179825602628e-05  9.6565313251750705e-06  9.0275077427037166e-06  8.3808737992619111e-06  7.7181317440310114e-06  7.0426881812186672e-06  6.3598124535769436e-06  5.6764073921717089e-06  5.0006557892253454e-06  4.3416240336562662e-06  3.7088989340570637e-06  3.1123140139417208e-06  2.5617968146408510e-06  2.0673427490516602e-06  1.6390824786574918e-06  1.2873533627336014e-06  1.0225444149052888e-06  8.5439459834098743e-07  7.9000628372573453e-07  8.3054851699927796e-07  9.6455000018672412e-07  1.1627609484806729e-06  1.3580220551863985e-06  1.5198736616509250e-06  1.2007336244481865e-06  3.7770409323876347e-07  -6.1160591233225169e-07  2.0018530037169890e-05  2.0985345732023827e-05  2.1712706863362078e-05  2.1837356721293307e-05  2.1370618965209620e-05  2.0756702593858072e-05  2.0043600258402999e-05  1.9303177594116884e-05  1.8574610466504660e-05  1.7874934417271673e-05  1.7208233834956642e-05  1.6571947857975249e-05  1.5960910531591453e-05  1.5369578642883058e-05  1.4792947763077658e-05  1.4226737221193212e-05  1.3667239117447679e-05  1.3111055105601745e-05  1.2554831758937928e-05  1.1995054621390401e-05  1.1427949042972323e-05  1.0849535826889624e-05  1.0255879082307185e-05  9.6435284284077569e-06  9.0100981882450341e-06  8.3548638020669792e-06  7.6792254255763876e-06  6.9869159701528082e-06  6.2839084431894113e-06  5.5780679039176502e-06  4.8786559358440619e-06  4.1958120021080558e-06  3.5401146780720481e-06  2.9222869649232461e-06  2.3530702441879918e-06  1.8432556704780333e-06  1.4038152212350542e-06  1.0460076732592615e-06  7.8117809526488931e-07  6.1986598430363002e-07  5.6941163554346901e-07  6.3001486476484071e-07  7.8714410216989845e-07  1.0056864350350151e-06  1.2092922676389182e-06  1.3575641426678873e-06  9.9437232231363971e-07  1.1626892934915408e-07  -9.1078801073580243e-07  2.0095377485882376e-05  2.1074156857124090e-05  2.1825812190735902e-05  2.1971610594162129e-05  2.1504071935729369e-05  2.0875515053921353e-05  2.0134803093390530e-05  1.9363908403219990e-05  1.8606329197755187e-05  1.7882249510476143e-05  1.7196929011455633e-05  1.6547750721574782e-05  1.5928833612046729e-05  1.5333697180176990e-05  1.4756421536698130e-05  1.4191946141523062e-05  1.3635938847367481e-05  1.3084493038390570e-05  1.2533785839017540e-05  1.1979775403451339e-05  1.1418008188911929e-05  1.0843617086869780e-05  1.0251587009893555e-05  9.6373181703545101e-06  8.9974197879161681e-06  8.3305522223700823e-06  7.6380730047600305e-06  6.9242885152033801e-06  6.1962539236094403e-06  5.4632196970542620e-06  4.7359135598602657e-06  4.0258486634317857e-06  3.3447917613714661e-06  2.7044531812383648e-06  2.1164005740238596e-06  1.5921541603097222e-06  1.1433713787637019e-06  7.8195856496318523e-07  5.1978582983298473e-07  3.6757942246364104e-07  3.3215383694403750e-07  4.1198014893275694e-07  5.8908476573981775e-07  8.2310095890079761e-07  1.0311624900419777e-06  1.1680736877393207e-06  7.7725450884770538e-07  -1.2922878760366079e-07  -1.1714158972280330e-06  2.0228937110301383e-05  2.1213764516484362e-05  2.1975653315288070e-05  2.2129417332379481e-05  2.1657480164472222e-05  2.1013898322982757e-05  2.0248832073966724e-05  1.9450300467358261e-05  1.8665232296798403e-05  1.7916893066497828e-05  1.7211963817297008e-05  1.6548198073772161e-05  1.5919395548405856e-05  1.5318425818563052e-05  1.4738625842251961e-05  1.4174241114796608e-05  1.3620349593603218e-05  1.3072546786676937e-05  1.2526537739221978e-05  1.1977726474926000e-05  1.1420898249470202e-05  1.0850121223260294e-05  1.0259012474045290e-05  9.6414619191628196e-06  8.9927490596968460e-06  8.3107709069601756e-06  7.5969652327152070e-06  6.8565955229256810e-06  6.0983339742099019e-06  5.3333564707742630e-06  4.5742862680836201e-06  3.8342746548675790e-06  3.1263764364413413e-06  2.4632543456777658e-06  1.8571665286621090e-06  1.3201475517773972e-06  8.6425123486232470e-07  5.0166038544487311e-07  2.4431290651957631e-07  1.0260391479727324e-07  8.2335662733560200e-08  1.7998717758711108e-07  3.7442220292139400e-07  6.2121148717969035e-07  8.3336053657246333e-07  9.6386136711733644e-07  5.5787080120916086e-07  -3.6140740328658122e-07  -1.4084360464279901e-06  2.0398216374822045e-05  2.1386082123211909e-05  2.2151207975958729e-05  2.2305516907598319e-05  2.1825606154261769e-05  2.1166588139389594e-05  2.0379636479606195e-05  1.9556250015775193e-05  1.8746092268637853e-05  1.7974989777522201e-05  1.7250984519821630e-05  1.6572399947213860e-05  1.5932976802053776e-05  1.5325165643752536e-05  1.4741728429464279e-05  1.4176324675175933e-05  1.3623510954965910e-05  1.3078437990091968e-05  1.2536389872053397e-05  1.1992253797850652e-05  1.1440032164482865e-05  1.0872576354995570e-05  1.0281800209600543e-05  9.6596013490212482e-06  8.9994691304358802e-06  8.2983402150870942e-06  7.5579590446018131e-06  6.7851536440548901e-06  5.9909862815216448e-06  5.1892503297910357e-06  4.3949193896111198e-06  3.6229641671671399e-06  2.8876809476090175e-06  2.2024845473643398e-06  1.5800345276267448e-06  1.0325426130586106e-06  5.7209168020708038e-07  2.1075092895435672e-07  -3.9871364779160327e-08  -1.7007072064229741e-07  -1.7528283330822060e-07  -6.0961348212745775e-08  1.4912647946205732e-07  4.0760186701309790e-07  6.2493579351519707e-07  7.5360520551223217e-07  3.4056916979032583e-07  -5.8332783062956691e-07  -1.6308195006126231e-06  2.0586761882109799e-05  2.1576207612889735e-05  2.2341258337436385e-05  2.2492208523042479e-05  2.2002268966170584e-05  2.1327973772941115e-05  2.0521215320942851e-05  1.9675728808461749e-05  1.8843308649985516e-05  1.8051742843120838e-05  1.7310259525900569e-05  1.6617786280969770e-05  1.5968135946121036e-05  1.5353491668700213e-05  1.4766168930295610e-05  1.4199333272031392e-05  1.3647087448303881e-05  1.3104203370612721e-05  1.2565631440510252e-05  1.2025845483764805e-05  1.1478128701870085e-05  1.0914015430318563e-05  1.0323323868730631e-05  9.6952793018235188e-06  9.0208750217539324e-06  8.2957985719923849e-06  7.5225163217402151e-06  6.7104131630152362e-06  5.8740770725637903e-06  5.0307863516213685e-06  4.1982837394952302e-06  3.3933659214367496e-06  2.6313025138454920e-06  1.9258575068911162e-06  1.2896516061972906e-06  7.3464672573449923e-07  2.7256005355884056e-07  -8.5007858231955265e-08  -3.2707804145794167e-07  -4.4484174976335466e-07  -4.3501277771733202e-07  -3.0476340780434075e-07  -7.9947940481658208e-08  1.8994419030721215e-07  4.1378101857856048e-07  5.4395518511517844e-07  1.2877959424147366e-07  -7.9559250881960092e-07  -1.8417546027578787e-06  2.0781406224281955e-05  2.1771737947473309e-05  2.2535252700865774e-05  2.2681101823993155e-05  2.2180528862583299e-05  2.1491775850409076e-05  2.0667330498035681e-05  1.9802576506840718e-05  1.8950938838518076e-05  1.8141687960909169e-05  1.7385039908561065e-05  1.6680469098365979e-05  1.6021905941215252e-05  1.5401351642711498e-05  1.4810756948020983e-05  1.4242850361477181e-05  1.3691319839098492e-05  1.3150601843707403e-05  1.2615406044750371e-05  1.2079952576445211e-05  1.1536989174551269e-05  1.0976742712528917e-05  1.0386501059352712e-05  9.7518215750970187e-06  9.0600430687730264e-06  8.3051489680783981e-06  7.4911155932689519e-06  6.6315589541431851e-06  5.7462606096953218e-06  4.8569884902098776e-06  3.9844791003174304e-06  3.1470266724427127e-06  2.3602862105362496e-06  1.6377375145270475e-06  9.9139396112821025e-07  4.3249994508670123e-07  -2.7961068827397244e-08  -3.7913458986785334e-07  -6.1085624772186408e-07  -7.1528547313880317e-07  -6.9033514431292487e-07  -5.4462706944094892e-07  -3.0563319874567235e-07  -2.4366750283901742e-08  2.0696418210404166e-07  3.4075121444790302e-07  -7.3764684152022341e-08  -9.9660711818782416e-07  -2.0407900486460086e-06  2.0971258396222553e-05  2.1962160350585075e-05  2.2723631839982901e-05  2.2863924905015990e-05  2.2353148612905457e-05  2.1651333449190101e-05  2.0811523674775846e-05  1.9930422601467899e-05  1.9062714486559423e-05  1.8238813517886835e-05  1.7469738680332994e-05  1.6755427116997791e-05  1.6089933986518115e-05  1.5465126402817251e-05  1.4872639801478340e-05  1.4304790692626469e-05  1.3754850041522015e-05  1.3216905316680946e-05  1.2685478558049901e-05  1.2154710823855359e-05  1.1617155362299066e-05  1.1061955995510092e-05  1.0473491122826343e-05  9.8321658380540234e-06  9.1196444223381969e-06  8.3274660910283555e-06  7.4626848331161266e-06  6.5460374303253235e-06  5.6048675220463387e-06  4.6663550115839990e-06  3.7539288023670040e-06  2.8864831941121218e-06  2.0790644804333777e-06  1.3440254250330296e-06  6.9214682543587599e-07  1.3352736369203600e-07  -3.2185863861942962e-07  -6.6406206058315268e-07  -8.8379363362282756e-07  -9.7414032265921447e-07  -9.3405786363418057e-07  -7.7333716436473366e-07  -5.2068036991883274e-07  -2.2821146192984371e-07  1.1100494501223361e-08  1.4962929862715293e-07  -2.6274051957710743e-07  -1.1831638961296175e-06  -2.2252199170365364e-06  2.1147097790057474e-05  2.2138440889770687e-05  2.2897869541675698e-05  2.3032904937665864e-05  2.2513017074214709e-05  2.1799949608382578e-05  2.0947270022447620e-05  2.0052772474886849e-05  1.9172135339291483e-05  1.8336676511919623e-05  1.7558065282947339e-05  1.6836629449750927e-05  1.6166552164313960e-05  1.5539608340589662e-05  1.4947164748926023e-05  1.4381146009300726e-05  1.3834376110670142e-05  1.3300511538295192e-05  1.2773844375177675e-05  1.2248524302188286e-05  1.1717406871926985e-05  1.1169125962289533e-05  1.0585164545722433e-05  9.9385518877137062e-06  9.2015860330547071e-06  8.3622153007058954e-06  7.4337960273667356e-06  6.4491614531934173e-06  5.4462543043721618e-06  4.4578728853478526e-06  3.5087472368786567e-06  2.6166705953732985e-06  1.7947036797505401e-06  1.0531561999333062e-06  4.0104317039529647e-07  -1.5295431388576589e-07  -5.9997980900612839e-07  -9.3099591059634746e-07  -1.1375206648055064e-06  -1.2134329176734064e-06  -1.1585243253211585e-06  -9.8347947047297245e-07  -7.1790849302063683e-07  -4.1473983688618504e-07  -1.6749011350132123e-07  -2.3826065601847073e-08  -4.3338499879982267e-07  -1.3511101002680896e-06  -2.3911269948758661e-06  2.1301086677426946e-05  2.2292830812204365e-05  2.3050492907543531e-05  2.3181002128347741e-05  2.2653483292351178e-05  2.1931212868891866e-05  2.1068226565232486e-05  2.0163219064124852e-05  1.9272661706216294e-05  1.8428595590381383e-05  1.7643222203753482e-05  1.6917210751344891e-05  1.6244888671174662e-05  1.5617998223967705e-05  1.5027713662109184e-05  1.4465626946233343e-05  1.3924109717050147e-05  1.3396287697286713e-05  1.2876053454170527e-05  1.2357413247141022e-05  1.1834015875922510e-05  1.1294939040133897e-05  1.0720084339873446e-05  1.0071730435744406e-05  9.3060606578503741e-06  8.4060206535752623e-06  7.3977551799678968e-06  6.3343671379568368e-06  5.2673612228260908e-06  4.2333024677326754e-06  3.2550721725851912e-06  2.3468735060762827e-06  1.5183246136835841e-06  7.7701493910591429e-07  1.2997433514276083e-07  -4.1552278310077049e-07  -8.5162424879523974e-07  -1.1700473617755569e-06  -1.3629367768485073e-06  -1.4247590539551634e-06  -1.3559089333037953e-06  -1.1677048614172031e-06  -8.9039399093628099e-07  -5.7746931347801790e-07  -3.2283217935603892e-07  -1.7419547692580623e-07  -5.8081453426350857e-07  -1.4959264386897727e-06  -2.5341211910938084e-06  2.1426686778391150e-05  2.2418828715791307e-05  2.3175147456870103e-05  2.3302101792270080e-05  2.2768635321508797e-05  2.2039305308810863e-05  2.1168536154182932e-05  2.0255742518347136e-05  1.9358016821645449e-05  1.8507972579316942e-05  1.7718246139292029e-05  1.6989811601068513e-05  1.6317166144024702e-05  1.5692097741252935e-05  1.5105705545164048e-05  1.4549381006994920e-05  1.4015140992361021e-05  1.3495592066922662e-05  1.2984021767444075e-05  1.2473882987781780e-05  1.1959617454191954e-05  1.1431662474427752e-05  1.0872532933877554e-05  1.0228545798626839e-05  9.4289610087924060e-06  8.4509298401354597e-06  7.3447186284033694e-06  6.1957733679362811e-06  5.0698579860824953e-06  4.0013853781368505e-06  3.0063608100807888e-06  2.0928584642536525e-06  1.2662313036939491e-06  5.3134810485414157e-07  -1.0645171017579672e-07  -6.4094863852894043e-07  -1.0649708979260837e-06  -1.3707106116422753e-06  -1.5506927850702883e-06  -1.5997418704739028e-06  -1.5186281455169257e-06  -1.3190741872391177e-06  -1.0317401451596124e-06  -7.1049183377425051e-07  -4.4948456825581626e-07  -2.9646976762423338e-07  -7.0038942336720695e-07  -1.6132124834859247e-06  -2.6498869554047869e-06  2.1518688948035672e-05  2.2511234948276771e-05  2.3266706052423050e-05  2.3391200092607017e-05  2.2853554242165644e-05  2.2119303706239986e-05  2.1243160754485576e-05  2.0325074734007034e-05  1.9422593528434644e-05  1.8568758431057136e-05  1.7776542856338211e-05  1.7047179852063711e-05  1.6375346559345164e-05  1.5752943241188861e-05  1.5171117789302967e-05  1.4621240158888330e-05  1.4095196745703411e-05  1.3585317540744151e-05  1.3084347320718083e-05  1.2584958377908256e-05  1.2081349821513670e-05  1.1565037598665153e-05  1.1028462810266253e-05  1.0394831045127621e-05  9.5560476801952257e-06  8.4845389867625317e-06  7.2668679934381262e-06  6.0362829793779718e-06  4.8683334344441565e-06  3.7837374663730173e-06  2.7865728102938806e-06  1.8779948204028090e-06  1.0597794783657589e-06  3.3499921380706038e-07  -2.9191946689177217e-07  -8.1523675711155728e-07  -1.2280498491471718e-06  -1.5227255120148960e-06  -1.6919353053583308e-06  -1.7306612855097007e-06  -1.6398617599174934e-06  -1.4314803691232941e-06  -1.1364149241087236e-06  -8.0875412132641993e-07  -5.4280365696714205e-07  -3.8634265781422149e-07  -7.8806662768659674e-07  -1.6990910176882171e-06  -2.7346079811333383e-06  2.1573292184685709e-05  2.2566245970590867e-05  2.3321396836830465e-05  2.3444582064738487e-05  2.2904545847194734e-05  2.2167462690104851e-05  2.1288215378812993e-05  2.0367092229011236e-05  1.9461924933760861e-05  1.8606028782289382e-05  1.7812598835722483e-05  1.7083050648142458e-05  1.6412206384768679e-05  1.5792085909865973e-05  1.5213940800734715e-05  1.4669234669220711e-05  1.4149929672284054e-05  1.3648404959539123e-05  1.3157273596419657e-05  1.2668876634487154e-05  1.2176127776637117e-05  1.1670693505060116e-05  1.1158796954440789e-05  1.0532975528293593e-05  9.6570040330746411e-06  8.5007209845330316e-06  7.1760528749580474e-06  5.8843292838463309e-06  4.7009520005062546e-06  3.6189195532588129e-06  2.6299809617978365e-06  1.7311026391740163e-06  9.2265655071749515e-07  2.0728791451297046e-07  -4.1067642258800388e-07  -9.2549550200542256e-07  -1.3302426494014932e-06  -1.6172676688984747e-06  -1.7792462869792051e-06  -1.8111940216789180e-06  -1.7141344523531690e-06  -1.5001052669453604e-06  -1.2001145000312778e-06  -8.6836081747789819e-07  -5.9922110727123068e-07  -4.4049543258240949e-07  -8.4070899435879942e-07  -1.7505360857593226e-06  -2.7852994542829863e-06  2.1588188412115083e-05  2.2581549523740906e-05  2.3336920817003991e-05  2.3459972893565914e-05  2.2919332444254520e-05  2.2181452866415683e-05  2.1301259899131969e-05  2.0379176195172106e-05  1.9473137511248304e-05  1.8616567028379328e-05  1.7822745456554659e-05  1.7093160697404020e-05  1.6422693012303921e-05  1.5803412078705046e-05  1.5226616280399308e-05  1.4683819458414328e-05  1.4167043698856105e-05  1.3668742771180437e-05  1.3181552949968946e-05  1.2697906830669169e-05  1.2210044138661686e-05  1.1710539856682813e-05  1.1211615871267502e-05  1.0595051961194620e-05  9.6972261505629630e-06  8.5109582339294856e-06  7.1368941605963826e-06  5.8109688055922685e-06  4.6304319679195620e-06  3.5550540324147787e-06  2.5723113308963880e-06  1.6787119088762913e-06  8.7483164770089583e-07  1.6349273317345795e-07  -4.5084615327327656e-07  -9.6235585492653508e-07  -1.3640533553122770e-06  -1.6482535198254451e-06  -1.8076127622724699e-06  -1.8371404467600225e-06  -1.73786532496042