<?xml version="1.0"?>
<VTKFile type="UnstructuredGrid"  version="0.1"  >
<UnstructuredGrid>
<Piece  NumberOfPoints="1617" NumberOfCells="3072">
<Points>
<DataArray  type="Float64"  NumberOfComponents="3"  format="ascii">0 0 0  0.03125 0 0  0.0625 0 0  0.09375 0 0  0.125 0 0  0.15625 0 0  0.1875 0 0  0.21875 0 0  0.25 0 0  0.28125 0 0  0.3125 0 0  0.34375 0 0  0.375 0 0  0.40625 0 0  0.4375 0 0  0.46875 0 0  0.5 0 0  0.53125 0 0  0.5625 0 0  0.59375 0 0  0.625 0 0  0.65625 0 0  0.6875 0 0  0.71875 0 0  0.75 0 0  0.78125 0 0  0.8125 0 0  0.84375 0 0  0.875 0 0  0.90625 0 0  0.9375 0 0  0.96875 0 0  1 0 0  1.03125 0 0  1.0625 0 0  1.09375 0 0  1.125 0 0  1.15625 0 0  1.1875 0 0  1.21875 0 0  1.25 0 0  1.28125 0 0  1.3125 0 0  1.34375 0 0  1.375 0 0  1.40625 0 0  1.4375 0 0  1.46875 0 0  1.5 0 0  0 0.03125 0  0.03125 0.03125 0  0.0625 0.03125 0  0.09375 0.03125 0  0.125 0.03125 0  0.15625 0.03125 0  0.1875 0.03125 0  0.21875 0.03125 0  0.25 0.03125 0  0.28125 0.03125 0  0.3125 0.03125 0  0.34375 0.03125 0  0.375 0.03125 0  0.40625 0.03125 0  0.4375 0.03125 0  0.46875 0.03125 0  0.5 0.03125 0  0.53125 0.03125 0  0.5625 0.03125 0  0.59375 0.03125 0  0.625 0.03125 0  0.65625 0.03125 0  0.6875 0.03125 0  0.71875 0.03125 0  0.75 0.03125 0  0.78125 0.03125 0  0.8125 0.03125 0  0.84375 0.03125 0  0.875 0.03125 0  0.90625 0.03125 0  0.9375 0.03125 0  0.96875 0.03125 0  1 0.03125 0  1.03125 0.03125 0  1.0625 0.03125 0  1.09375 0.03125 0  1.125 0.03125 0  1.15625 0.03125 0  1.1875 0.03125 0  1.21875 0.03125 0  1.25 0.03125 0  1.28125 0.03125 0  1.3125 0.03125 0  1.34375 0.03125 0  1.375 0.03125 0  1.40625 0.03125 0  1.4375 0.03125 0  1.46875 0.03125 0  1.5 0.03125 0  0 0.0625 0  0.03125 0.0625 0  0.0625 0.0625 0  0.09375 0.0625 0  0.125 0.0625 0  0.15625 0.0625 0  0.1875 0.0625 0  0.21875 0.0625 0  0.25 0.0625 0  0.28125 0.0625 0  0.3125 0.0625 0  0.34375 0.0625 0  0.375 0.0625 0  0.40625 0.0625 0  0.4375 0.0625 0  0.46875 0.0625 0  0.5 0.0625 0  0.53125 0.0625 0  0.5625 0.0625 0  0.59375 0.0625 0  0.625 0.0625 0  0.65625 0.0625 0  0.6875 0.0625 0  0.71875 0.0625 0  0.75 0.0625 0  0.78125 0.0625 0  0.8125 0.0625 0  0.84375 0.0625 0  0.875 0.0625 0  0.90625 0.0625 0  0.9375 0.0625 0  0.96875 0.0625 0  1 0.0625 0  1.03125 0.0625 0  1.0625 0.0625 0  1.09375 0.0625 0  1.125 0.0625 0  1.15625 0.0625 0  1.1875 0.0625 0  1.21875 0.0625 0  1.25 0.0625 0  1.28125 0.0625 0  1.3125 0.0625 0  1.34375 0.0625 0  1.375 0.0625 0  1.40625 0.0625 0  1.4375 0.0625 0  1.46875 0.0625 0  1.5 0.0625 0  0 0.09375 0  0.03125 0.09375 0  0.0625 0.09375 0  0.09375 0.09375 0  0.125 0.09375 0  0.15625 0.09375 0  0.1875 0.09375 0  0.21875 0.09375 0  0.25 0.09375 0  0.28125 0.09375 0  0.3125 0.09375 0  0.34375 0.09375 0  0.375 0.09375 0  0.40625 0.09375 0  0.4375 0.09375 0  0.46875 0.09375 0  0.5 0.09375 0  0.53125 0.09375 0  0.5625 0.09375 0  0.59375 0.09375 0  0.625 0.09375 0  0.65625 0.09375 0  0.6875 0.09375 0  0.71875 0.09375 0  0.75 0.09375 0  0.78125 0.09375 0  0.8125 0.09375 0  0.84375 0.09375 0  0.875 0.09375 0  0.90625 0.09375 0  0.9375 0.09375 0  0.96875 0.09375 0  1 0.09375 0  1.03125 0.09375 0  1.0625 0.09375 0  1.09375 0.09375 0  1.125 0.09375 0  1.15625 0.09375 0  1.1875 0.09375 0  1.21875 0.09375 0  1.25 0.09375 0  1.28125 0.09375 0  1.3125 0.09375 0  1.34375 0.09375 0  1.375 0.09375 0  1.40625 0.09375 0  1.4375 0.09375 0  1.46875 0.09375 0  1.5 0.09375 0  0 0.125 0  0.03125 0.125 0  0.0625 0.125 0  0.09375 0.125 0  0.125 0.125 0  0.15625 0.125 0  0.1875 0.125 0  0.21875 0.125 0  0.25 0.125 0  0.28125 0.125 0  0.3125 0.125 0  0.34375 0.125 0  0.375 0.125 0  0.40625 0.125 0  0.4375 0.125 0  0.46875 0.125 0  0.5 0.125 0  0.53125 0.125 0  0.5625 0.125 0  0.59375 0.125 0  0.625 0.125 0  0.65625 0.125 0  0.6875 0.125 0  0.71875 0.125 0  0.75 0.125 0  0.78125 0.125 0  0.8125 0.125 0  0.84375 0.125 0  0.875 0.125 0  0.90625 0.125 0  0.9375 0.125 0  0.96875 0.125 0  1 0.125 0  1.03125 0.125 0  1.0625 0.125 0  1.09375 0.125 0  1.125 0.125 0  1.15625 0.125 0  1.1875 0.125 0  1.21875 0.125 0  1.25 0.125 0  1.28125 0.125 0  1.3125 0.125 0  1.34375 0.125 0  1.375 0.125 0  1.40625 0.125 0  1.4375 0.125 0  1.46875 0.125 0  1.5 0.125 0  0 0.15625 0  0.03125 0.15625 0  0.0625 0.15625 0  0.09375 0.15625 0  0.125 0.15625 0  0.15625 0.15625 0  0.1875 0.15625 0  0.21875 0.15625 0  0.25 0.15625 0  0.28125 0.15625 0  0.3125 0.15625 0  0.34375 0.15625 0  0.375 0.15625 0  0.40625 0.15625 0  0.4375 0.15625 0  0.46875 0.15625 0  0.5 0.15625 0  0.53125 0.15625 0  0.5625 0.15625 0  0.59375 0.15625 0  0.625 0.15625 0  0.65625 0.15625 0  0.6875 0.15625 0  0.71875 0.15625 0  0.75 0.15625 0  0.78125 0.15625 0  0.8125 0.15625 0  0.84375 0.15625 0  0.875 0.15625 0  0.90625 0.15625 0  0.9375 0.15625 0  0.96875 0.15625 0  1 0.15625 0  1.03125 0.15625 0  1.0625 0.15625 0  1.09375 0.15625 0  1.125 0.15625 0  1.15625 0.15625 0  1.1875 0.15625 0  1.21875 0.15625 0  1.25 0.15625 0  1.28125 0.15625 0  1.3125 0.15625 0  1.34375 0.15625 0  1.375 0.15625 0  1.40625 0.15625 0  1.4375 0.15625 0  1.46875 0.15625 0  1.5 0.15625 0  0 0.1875 0  0.03125 0.1875 0  0.0625 0.1875 0  0.09375 0.1875 0  0.125 0.1875 0  0.15625 0.1875 0  0.1875 0.1875 0  0.21875 0.1875 0  0.25 0.1875 0  0.28125 0.1875 0  0.3125 0.1875 0  0.34375 0.1875 0  0.375 0.1875 0  0.40625 0.1875 0  0.4375 0.1875 0  0.46875 0.1875 0  0.5 0.1875 0  0.53125 0.1875 0  0.5625 0.1875 0  0.59375 0.1875 0  0.625 0.1875 0  0.65625 0.1875 0  0.6875 0.1875 0  0.71875 0.1875 0  0.75 0.1875 0  0.78125 0.1875 0  0.8125 0.1875 0  0.84375 0.1875 0  0.875 0.1875 0  0.90625 0.1875 0  0.9375 0.1875 0  0.96875 0.1875 0  1 0.1875 0  1.03125 0.1875 0  1.0625 0.1875 0  1.09375 0.1875 0  1.125 0.1875 0  1.15625 0.1875 0  1.1875 0.1875 0  1.21875 0.1875 0  1.25 0.1875 0  1.28125 0.1875 0  1.3125 0.1875 0  1.34375 0.1875 0  1.375 0.1875 0  1.40625 0.1875 0  1.4375 0.1875 0  1.46875 0.1875 0  1.5 0.1875 0  0 0.21875 0  0.03125 0.21875 0  0.0625 0.21875 0  0.09375 0.21875 0  0.125 0.21875 0  0.15625 0.21875 0  0.1875 0.21875 0  0.21875 0.21875 0  0.25 0.21875 0  0.28125 0.21875 0  0.3125 0.21875 0  0.34375 0.21875 0  0.375 0.21875 0  0.40625 0.21875 0  0.4375 0.21875 0  0.46875 0.21875 0  0.5 0.21875 0  0.53125 0.21875 0  0.5625 0.21875 0  0.59375 0.21875 0  0.625 0.21875 0  0.65625 0.21875 0  0.6875 0.21875 0  0.71875 0.21875 0  0.75 0.21875 0  0.78125 0.21875 0  0.8125 0.21875 0  0.84375 0.21875 0  0.875 0.21875 0  0.90625 0.21875 0  0.9375 0.21875 0  0.96875 0.21875 0  1 0.21875 0  1.03125 0.21875 0  1.0625 0.21875 0  1.09375 0.21875 0  1.125 0.21875 0  1.15625 0.21875 0  1.1875 0.21875 0  1.21875 0.21875 0  1.25 0.21875 0  1.28125 0.21875 0  1.3125 0.21875 0  1.34375 0.21875 0  1.375 0.21875 0  1.40625 0.21875 0  1.4375 0.21875 0  1.46875 0.21875 0  1.5 0.21875 0  0 0.25 0  0.03125 0.25 0  0.0625 0.25 0  0.09375 0.25 0  0.125 0.25 0  0.15625 0.25 0  0.1875 0.25 0  0.21875 0.25 0  0.25 0.25 0  0.28125 0.25 0  0.3125 0.25 0  0.34375 0.25 0  0.375 0.25 0  0.40625 0.25 0  0.4375 0.25 0  0.46875 0.25 0  0.5 0.25 0  0.53125 0.25 0  0.5625 0.25 0  0.59375 0.25 0  0.625 0.25 0  0.65625 0.25 0  0.6875 0.25 0  0.71875 0.25 0  0.75 0.25 0  0.78125 0.25 0  0.8125 0.25 0  0.84375 0.25 0  0.875 0.25 0  0.90625 0.25 0  0.9375 0.25 0  0.96875 0.25 0  1 0.25 0  1.03125 0.25 0  1.0625 0.25 0  1.09375 0.25 0  1.125 0.25 0  1.15625 0.25 0  1.1875 0.25 0  1.21875 0.25 0  1.25 0.25 0  1.28125 0.25 0  1.3125 0.25 0  1.34375 0.25 0  1.375 0.25 0  1.40625 0.25 0  1.4375 0.25 0  1.46875 0.25 0  1.5 0.25 0  0 0.28125 0  0.03125 0.28125 0  0.0625 0.28125 0  0.09375 0.28125 0  0.125 0.28125 0  0.15625 0.28125 0  0.1875 0.28125 0  0.21875 0.28125 0  0.25 0.28125 0  0.28125 0.28125 0  0.3125 0.28125 0  0.34375 0.28125 0  0.375 0.28125 0  0.40625 0.28125 0  0.4375 0.28125 0  0.46875 0.28125 0  0.5 0.28125 0  0.53125 0.28125 0  0.5625 0.28125 0  0.59375 0.28125 0  0.625 0.28125 0  0.65625 0.28125 0  0.6875 0.28125 0  0.71875 0.28125 0  0.75 0.28125 0  0.78125 0.28125 0  0.8125 0.28125 0  0.84375 0.28125 0  0.875 0.28125 0  0.90625 0.28125 0  0.9375 0.28125 0  0.96875 0.28125 0  1 0.28125 0  1.03125 0.28125 0  1.0625 0.28125 0  1.09375 0.28125 0  1.125 0.28125 0  1.15625 0.28125 0  1.1875 0.28125 0  1.21875 0.28125 0  1.25 0.28125 0  1.28125 0.28125 0  1.3125 0.28125 0  1.34375 0.28125 0  1.375 0.28125 0  1.40625 0.28125 0  1.4375 0.28125 0  1.46875 0.28125 0  1.5 0.28125 0  0 0.3125 0  0.03125 0.3125 0  0.0625 0.3125 0  0.09375 0.3125 0  0.125 0.3125 0  0.15625 0.3125 0  0.1875 0.3125 0  0.21875 0.3125 0  0.25 0.3125 0  0.28125 0.3125 0  0.3125 0.3125 0  0.34375 0.3125 0  0.375 0.3125 0  0.40625 0.3125 0  0.4375 0.3125 0  0.46875 0.3125 0  0.5 0.3125 0  0.53125 0.3125 0  0.5625 0.3125 0  0.59375 0.3125 0  0.625 0.3125 0  0.65625 0.3125 0  0.6875 0.3125 0  0.71875 0.3125 0  0.75 0.3125 0  0.78125 0.3125 0  0.8125 0.3125 0  0.84375 0.3125 0  0.875 0.3125 0  0.90625 0.3125 0  0.9375 0.3125 0  0.96875 0.3125 0  1 0.3125 0  1.03125 0.3125 0  1.0625 0.3125 0  1.09375 0.3125 0  1.125 0.3125 0  1.15625 0.3125 0  1.1875 0.3125 0  1.21875 0.3125 0  1.25 0.3125 0  1.28125 0.3125 0  1.3125 0.3125 0  1.34375 0.3125 0  1.375 0.3125 0  1.40625 0.3125 0  1.4375 0.3125 0  1.46875 0.3125 0  1.5 0.3125 0  0 0.34375 0  0.03125 0.34375 0  0.0625 0.34375 0  0.09375 0.34375 0  0.125 0.34375 0  0.15625 0.34375 0  0.1875 0.34375 0  0.21875 0.34375 0  0.25 0.34375 0  0.28125 0.34375 0  0.3125 0.34375 0  0.34375 0.34375 0  0.375 0.34375 0  0.40625 0.34375 0  0.4375 0.34375 0  0.46875 0.34375 0  0.5 0.34375 0  0.53125 0.34375 0  0.5625 0.34375 0  0.59375 0.34375 0  0.625 0.34375 0  0.65625 0.34375 0  0.6875 0.34375 0  0.71875 0.34375 0  0.75 0.34375 0  0.78125 0.34375 0  0.8125 0.34375 0  0.84375 0.34375 0  0.875 0.34375 0  0.90625 0.34375 0  0.9375 0.34375 0  0.96875 0.34375 0  1 0.34375 0  1.03125 0.34375 0  1.0625 0.34375 0  1.09375 0.34375 0  1.125 0.34375 0  1.15625 0.34375 0  1.1875 0.34375 0  1.21875 0.34375 0  1.25 0.34375 0  1.28125 0.34375 0  1.3125 0.34375 0  1.34375 0.34375 0  1.375 0.34375 0  1
[...]
<PointData  Scalars="f_33"> 
<DataArray  type="Float64"  Name="f_33"  format="ascii">3.4339675265281941e-05  3.2289513266568192e-05  3.0963503440700567e-05  2.9502564230453883e-05  2.8052007461083450e-05  2.6622183016855299e-05  2.5227111940915678e-05  2.3869831108821099e-05  2.2550821479940864e-05  2.1270190911785510e-05  2.0028043603279179e-05  1.8824417679883100e-05  1.7659243539271664e-05  1.6532321488394889e-05  1.5443291380532594e-05  1.4391594376841353e-05  1.3376422358179818e-05  1.2396665543579179e-05  1.1450875876980323e-05  1.0537269671924071e-05  9.6537955181193222e-06  8.7982888160721691e-06  7.9687211989451910e-06  7.1635318730336518e-06  6.3820031262107407e-06  5.6246217170709418e-06  4.8933608192018843e-06  4.1918274862194190e-06  3.5252479026789868e-06  2.9002941097920687e-06  2.3247885862900724e-06  1.8073334892783285e-06  1.3569278042021920e-06  9.8260149093149635e-07  6.9312999324894811e-07  4.9678388046472635e-07  4.0122883118926585e-07  4.1336127749936930e-07  5.3945540314117815e-07  7.8489861337116459e-07  1.1548800177579238e-06  1.6531464261554508e-06  2.2853126848089967e-06  3.0483471237399240e-06  3.9586247862098274e-06  4.9414256086797613e-06  6.1652091905860803e-06  6.9339019549521115e-06  8.4882653929870639e-06  3.5301091770485125e-05  3.2432696407014010e-05  3.1050921651538328e-05  2.9496359524964111e-05  2.8021841892329053e-05  2.6579559596918717e-05  2.5180504083570142e-05  2.3822746849591120e-05  2.2504751303503453e-05  2.1225774290976598e-05  1.9985597512450372e-05  1.8784090148476712e-05  1.7621086122925299e-05  1.6496326385098828e-05  1.5409415741860447e-05  1.4359777533337729e-05  1.3346593158065712e-05  1.2368738420604384e-05  1.1424733654278182e-05  1.0512733042548544e-05  9.6305825837157977e-06  8.7759722568803650e-06  7.9466944140317035e-06  7.1409967158364687e-06  6.3579889755408622e-06  5.5980384502478037e-06  4.8630788169545234e-06  4.1567699580320333e-06  3.4844775078870884e-06  2.8530787091822192e-06  2.2706370890664693e-06  1.7460018154715672e-06  1.2883991966220155e-06  9.0705337532465092e-07  6.1089198648246816e-07  4.0830623315247019e-07  3.0704942045746121e-07  3.1411016044108954e-07  4.3584898411822795e-07  6.7780567605341341e-07  1.0454324783859053e-06  1.5427891666877778e-06  2.1770491792471679e-06  2.9452943928537020e-06  3.8752499311955034e-06  4.8790136432265075e-06  6.2089850077958812e-06  6.9864340630172635e-06  9.2642182443403699e-06  3.6256008995183267e-05  3.2977070347824523e-05  3.1450413934777397e-05  2.9615209935196499e-05  2.8039068883962947e-05  2.6531123405081591e-05  2.5099024795710994e-05  2.3723982974800548e-05  2.2397538385717887e-05  2.1115175356929881e-05  1.9874632291571585e-05  1.8674598211124077e-05  1.7514214756198924e-05  1.6392797001059135e-05  1.5309693718799766e-05  1.4264175086184660e-05  1.3255325524899795e-05  1.2281938295000253e-05  1.1342423510375699e-05  1.0434757888707025e-05  9.5565126135393489e-06  8.7049957044845682e-06  7.8775312025785937e-06  7.0718674144837843e-06  6.2866659614288392e-06  5.5219860839227376e-06  4.7796631958113099e-06  4.0634972575460947e-06  3.3792129189419271e-06  2.7342066859099857e-06  2.1371441450362392e-06  1.5974831314727980e-06  1.1250094091126867e-06  7.2942419566576191e-07  4.2005087985130265e-07  2.0560625076933525e-07  9.4155914638367061e-08  9.3015439291650802e-08  2.0903122696807100e-07  4.4840150239062657e-07  8.1785769435632928e-07  1.3231995573158191e-06  1.9757931280022669e-06  2.7769302147192260e-06  3.7703930349408828e-06  4.8659116355854093e-06  6.3997148693504907e-06  7.3735467469059879e-06  1.0291438423588578e-05  3.7068860642036822e-05  3.3665956731036419e-05  3.2046388843654688e-05  2.9931114530146053e-05  2.8209361626495005e-05  2.6585657535058903e-05  2.5083451704338705e-05  2.3663326130249166e-05  2.2308784248615068e-05  2.1009180663261845e-05  1.9758420866420378e-05  1.8552815970539557e-05  1.7389988657122253e-05  1.6268281416387505e-05  1.5186422584899070e-05  1.4143285999326879e-05  1.3137697522630262e-05  1.2168251721236221e-05  1.1233145072763148e-05  1.0330053978763019e-05  9.4561047090540517e-06  8.6079906063713668e-06  7.7822786191022272e-06  6.9759072849053132e-06  6.1868161794766730e-06  5.4145846144589708e-06  4.6609287270192592e-06  3.9299325064054868e-06  3.2279637062658418e-06  2.5633108025754578e-06  1.9456430668905389e-06  1.3854091580936309e-06  8.9328637043973788e-07  4.7973138448652997e-07  1.5469436753324449e-07  -7.2560343653620368e-08  -1.9342684784882464e-07  -1.9993978787728219e-07  -8.4370581412068291e-08  1.6083345509611551e-07  5.4445558427395360e-07  1.0756073692251442e-06  1.7707091175330190e-06  2.6386480808361625e-06  3.7344827763712026e-06  4.9785761418134691e-06  6.7243148967172141e-06  7.9436713694982795e-06  1.1113966090849128e-05  3.7885425743392161e-05  3.4430826222423181e-05  3.2703557553922677e-05  3.0384650414315924e-05  2.8509379551155175e-05  2.6748738918724262e-05  2.5151648006944369e-05  2.3662980906935130e-05  2.2261438414633209e-05  2.0929777776868625e-05  1.9657486235541649e-05  1.8437757116978327e-05  1.7266042129935771e-05  1.6139213149002296e-05  1.5054997265563409e-05  1.4011599999259375e-05  1.3007398274574527e-05  1.2040652939294744e-05  1.1109237149061075e-05  1.0210406648829117e-05  9.3406755370462733e-06  8.4958825320596176e-06  7.6715255224182608e-06  6.8633891207117183e-06  6.0683909280497246e-06  5.2854629979604472e-06  4.5162299058650591e-06  3.7652901539165747e-06  3.0400393737815871e-06  2.3501162592614066e-06  1.7066453619091090e-06  1.1214550406707982e-06  6.0641853119144831e-07  1.7297358041629569e-07  -1.6812708115927143e-07  -4.0691462336952286e-07  -5.3405753771866099e-07  -5.4070962566837871e-07  -4.1792297538335681e-07  -1.5639924705524626e-07  2.5521641695598081e-07  8.2967998125480359e-07  1.5884921243066741e-06  2.5469475860810049e-06  3.7671084359527013e-06  5.1730983893132062e-06  7.1137979381781424e-06  8.5273908169797626e-06  1.1822118492489414e-05  3.8695283950302793e-05  3.5206707528081155e-05  3.3384812406020200e-05  3.0916468361042177e-05  2.8897183027035030e-05  2.7001552957910466e-05  2.5299144731968095e-05  2.3728039888008570e-05  2.2265846751895547e-05  2.0889913668528052e-05  1.9585958120607622e-05  1.8343932251138147e-05  1.7156871172203254e-05  1.6019871468092907e-05  1.4929379040635822e-05  1.3882709072215332e-05  1.2877624754814508e-05  1.1911941103332381e-05  1.0983125412661470e-05  1.0087922258232430e-05  9.2220868268104992e-06  8.3803570980576781e-06  7.5568057248881388e-06  6.7456458819406235e-06  5.9424053366430258e-06  5.1451847609235769e-06  4.3556066871633923e-06  3.5791437055146113e-06  2.8247562862763264e-06  2.1040160754318306e-06  1.4300176155839199e-06  8.1635294300481582e-07  2.7633476392064710e-07  -1.7748617580908580e-07  -5.3349082542451695e-07  -7.8096281508021584e-07  -9.0979383683588032e-07  -9.1017107197271905e-07  -7.7183460966143494e-07  -4.8365303537356791e-07  -3.1799503445828861e-08  5.9972982804240728e-07  1.4362168410197438e-06  2.4968826819014048e-06  3.8458426648722587e-06  5.4046007454042155e-06  7.5079048646014717e-06  9.0633894070190690e-06  1.2428210860996202e-05  3.9475916684548565e-05  3.5961337309411492e-05  3.4063826341728018e-05  3.1479867518906640e-05  2.9334955263010906e-05  2.7316898468256758e-05  2.5509532511323302e-05  2.3851493412205881e-05  2.2321406359861174e-05  2.0893322578774315e-05  1.9550359516069744e-05  1.8279611034240067e-05  1.7071836636924707e-05  1.5920276662512043e-05  1.4819969153432540e-05  1.3767202468435412e-05  1.2759018992520194e-05  1.1792724635829312e-05  1.0865350526308404e-05  9.9730955235316481e-06  9.1108517792701052e-06  8.2720107059385887e-06  7.4487972355493296e-06  6.6333121176468718e-06  5.8192034103742543e-06  5.0035187655816726e-06  4.1880637264380140e-06  3.3797468764896463e-06  2.5898564148146264e-06  1.8326441161633626e-06  1.1237480879954428e-06  4.7886395295669944e-07  -8.7127787929612392e-08  -5.6058241620115162e-07  -9.2910935669939995e-07  -1.1813615455721411e-06  -1.3065617437266189e-06  -1.2940353750436111e-06  -1.1323391190784694e-06  -8.0875562734942466e-07  -3.0745590670820081e-07  3.8985958710587352e-07  1.3106331476517282e-06  2.4753412610058694e-06  3.9466008794096776e-06  5.6396107819269694e-06  7.8736454053981798e-06  9.5320935949854229e-06  1.2941981694981481e-05  4.0211174820075393e-05  3.6676124291429863e-05  3.4719402764735819e-05  3.2043775365013715e-05  2.9793367570472724e-05  2.7668358470022109e-05  2.5763258043674492e-05  2.4020642325764260e-05  2.2421136253356848e-05  2.0937597487588386e-05  1.9551646435530271e-05  1.8248204756990191e-05  1.7016119806284205e-05  1.5846883185685017e-05  1.4734136155874557e-05  1.3673088596554131e-05  1.2660019014806196e-05  1.1691715780215061e-05  1.0764810056191891e-05  9.8750003022491953e-06  9.0162836963022083e-06  8.1804757226177857e-06  7.3574402176943567e-06  6.5364285200582876e-06  5.7085140655563992e-06  4.8694068516600791e-06  4.0214442966316010e-06  3.1738613687424141e-06  2.3413707270977158e-06  1.5418532489534434e-06  7.9408806724499725e-07  1.1609484215439734e-07  -4.7574597409747366e-07  -9.6692815016604879e-07  -1.3445823667635159e-06  -1.5970198575507964e-06  -1.7130606008189953e-06  -1.6814273009679783e-06  -1.4898003388178415e-06  -1.1243071598587574e-06  -5.6779629999704768e-07  1.9928946284562268e-07  1.2050177383059441e-06  2.4691652925195801e-06  4.0507754841952646e-06  5.8577089640729530e-06  8.1954780136359323e-06  9.9300423391444464e-06  1.3371525783951924e-05  4.0889994307951235e-05  3.7338791306059564e-05  3.5335847577157235e-05  3.2586987538469852e-05  3.0249532671116652e-05  2.8033316811485829e-05  2.6041262940161577e-05  2.4220636958871957e-05  2.2554588506196535e-05  2.1016243199502248e-05  1.9586581108704672e-05  1.8249106162677439e-05  1.6991182297161274e-05  1.5802782657577581e-05  1.4676249478678506e-05  1.3605726784356340e-05  1.2586731459037353e-05  1.1615565889348940e-05  1.0688561855320654e-05  9.8010588736511187e-06  8.9462392469264883e-06  8.1141641454100571e-06  7.2917092501964916e-06  6.4642362437488451e-06  5.6192082963916282e-06  4.7506164059328069e-06  3.8619762098034870e-06  2.9662835085891315e-06  2.0832549589116085e-06  1.2355607783230604e-06  4.4564365643735317e-07  -2.6618492961673904e-07  -8.8241770211971483e-07  -1.3881947062790751e-06  -1.7706734953728528e-06  -2.0182666940159313e-06  -2.1197697916096518e-06  -2.0636538228830384e-06  -1.8371056021097420e-06  -1.4255885841336284e-06  -8.1129818649347139e-07  2.5669188513915281e-08  1.1128855561393357e-06  2.4682379272965416e-06  4.1464112173777091e-06  6.0483046104441584e-06  8.4683161848220117e-06  1.0260373092615169e-05  1.3725087925468943e-05  4.1504259276982636e-05  3.7940363492309195e-05  3.5901347253199937e-05  3.3094005680319678e-05  3.0685616989890760e-05  2.8393180590128156e-05  2.6326268689207743e-05  2.4436537371494143e-05  2.2709842198253827e-05  2.1120348422915229e-05  1.9649020092287237e-05  1.8278589339065576e-05  1.6995346733719355e-05  1.5788028724925953e-05  1.4647816453512048e-05  1.3567837721358276e-05  1.2542862986002540e-05  1.1568748276732468e-05  1.0641665856831449e-05  9.7568323141323282e-06  8.9068603670715617e-06  8.0799957455757239e-06  7.2593809905628485e-06  6.4249902433759570e-06  5.5590680766085615e-06  4.6533620500445238e-06  3.7137688466783698e-06  2.7593857446199402e-06  1.8171737202871718e-06  9.1588233151066722e-07  8.1847200240619947e-08  -6.6282258966442908e-07  -1.3002972246866398e-06  -1.8161818443704578e-06  -2.1983520948592650e-06  -2.4358564804410530e-06  -2.5178790484573532e-06  -2.4329924623036573e-06  -2.1682520110925194e-06  -1.7088876454030198e-06  -1.0369822387240333e-06  -1.3293435955414234e-07  1.0296516560494443e-06  2.4662545377671689e-06  4.2272068749986299e-06  6.2074579490437748e-06  8.6928130722069683e-06  1.0529056063969602e-05  1.4011366644333128e-05  4.2047518691338841e-05  3.8473736068401531e-05  3.6406684805641050e-05  3.3552957706803828e-05  3.1087545798211466e-05  2.8732667592414826e-05  2.6603109289658950e-05  2.4654291730603533e-05  2.2874665631021284e-05  2.1239747913500091e-05  1.9730900543780151e-05  1.8330558067162088e-05  1.7024299002360196e-05  1.5799906527803855e-05  1.4647557401657370e-05  1.3559430408877057e-05  1.2529551579144082e-05  1.1553338258169145e-05  1.0626926971117957e-05  9.7457032543400523e-06  8.9021806296631133e-06  8.0829502282433448e-06  7.2666264081411319e-06  6.4256372185140118e-06  5.5344158456354108e-06  4.5817409914100146e-06  3.5781531892058733e-06  2.5526814316041016e-06  1.5425621690494741e-06  5.8374018526765605e-07  -2.9402794107699073e-07  -1.0680677455711875e-06  -1.7215543167235098e-06  -2.2416500673749039e-06  -2.6177258636971977e-06  -2.8399794148181389e-06  -2.8983259955173290e-06  -2.7817038307296118e-06  -2.4772938008679898e-06  -1.9703893274189194e-06  -1.2433088786436991e-06  -2.7712407418093994e-07  9.5309160038499792e-07  2.4603498804987394e-06  4.2910725882607129e-06  6.3354181038191779e-06  8.8726993135894029e-06  1.0743261001260184e-05  1.4239110963581148e-05  4.2514362486862378e-05  3.8933007160878202e-05  3.6844432883872975e-05  3.3954431333360624e-05  3.1444016688783404e-05  2.9039164979694885e-05  2.6858704822214091e-05  2.4861129641627970e-05  2.3037196877298579e-05  2.1363823057416420e-05  1.9822997087123649e-05  1.8397175636305582e-05  1.7071530679936297e-05  1.5833160981387392e-05  1.4671417716257870e-05  1.3577620293269096e-05  1.2545042726887423e-05  1.1568613616843587e-05  1.0644460495940603e-05  9.7683862175754367e-06  8.9335162270657914e-06  8.1252845715811205e-06  7.3172325415476849e-06  6.4711805122385147e-06  5.5494273353257633e-06  4.5368453876284535e-06  3.4528920379847184e-06  2.3426807199993223e-06  1.2573960420417162e-06  2.4036917186194871e-07  -6.7702179612175878e-07  -1.4737458675205284e-06  -2.1357800034058579e-06  -2.6530251289203711e-06  -3.0170158998770656e-06  -3.2194339911755071e-06  -3.2510870349411572e-06  -3.1013780675172845e-06  -2.7577165288675986e-06  -2.2055926311802170e-06  -1.4277136445150492e-06  -4.0595237005359498e-07  8.8314012480063622e-07  2.4503330540439135e-06  4.3387664257776588e-06  6.4348986860488938e-06  9.0132144681448798e-06  1.0910470651977890e-05  1.4416792366626409e-05  4.2900169783677209e-05  3.9313189957330940e-05  3.7208497862702514e-05  3.4290833745222247e-05  3.1745883392874776e-05  2.9302282588730256e-05  2.7081935802622486e-05  2.5045743066163879e-05  2.3186394383973712e-05  2.1482100357307756e-05  1.9915560387351921e-05  1.8469453619344587e-05  1.7128795090625326e-05  1.5880256048863593e-05  1.4712577742967749e-05  1.3616365409831604e-05  1.2584174491535258e-05  1.1610367602071357e-05  1.0690933693614233e-05  9.8221367900373916e-06  8.9984907174025757e-06  8.2051297680061384e-06  7.4110932739651277e-06  6.5633130863598854e-06  5.6047211363135592e-06  4.5154181713991735e-06  3.3315976082169364e-06  2.1238044737267428e-06  9.6052495252139477e-07  -1.0967306621695257e-07  -1.0575624076349761e-06  -1.8668690563807382e-06  -2.5282545614903565e-06  -3.0352485908766440e-06  -3.3818356149240030e-06  -3.5611787761461106e-06  -3.5648799238215725e-06  -3.3827125380885321e-06  -3.0022613506446537e-06  -2.4091998797637178e-06  -1.5866186846707093e-06  -5.1714303599103959e-07  8.2137373130947109e-07  2.4378291340199635e-06  4.3727586807140487e-06  6.5098633844309368e-06  9.1201023680419851e-06  1.1037905837902886e-05  1.4552260192020933e-05  4.3201042515606048e-05  3.9610116213757735e-05  3.7493908236136643e-05  3.4556069781256076e-05  3.1985812533709152e-05  2.9513592134908801e-05  2.7263571455031044e-05  2.5198442142621165e-05  2.3312414974747429e-05  2.1584793810045917e-05  1.9998961360504909e-05  1.8537921428833660e-05  1.7186720361217791e-05  1.5931840184114586e-05  1.4761665213319609e-05  1.3666319022843144e-05  1.2637792568886102e-05  1.1669895161172282e-05  1.0758269200276892e-05  9.8993919585266617e-06  9.0894669667561842e-06  8.3142141915973457e-06  7.5414226384406846e-06  6.6972548356257193e-06  5.6944220742862915e-06  4.5084010382752930e-06  3.2047997166029151e-06  1.8921706653949309e-06  6.5694521999010299e-07  -4.5343455776040569e-07  -1.4175995412837964e-06  -2.2271696817455466e-06  -2.8786461119910802e-06  -3.3692709308623205e-06  -3.6951479810830803e-06  -3.8505150848572658e-06  -3.8274260189768595e-06  -3.6157827120115427e-06  -3.2031897671163035e-06  -2.5754000858454568e-06  -1.7157854986891641e-06  -6.0757111451723299e-07  7.7035980982750933e-07  2.4254593713046549e-06  4.3963121114539912e-06  6.5646438023611910e-06  9.1989180762263484e-06  1.1132090884071690e-05  1.4652444301181463e-05  4.3413830649953307e-05  3.9820442072724911e-05  3.7696749763043066e-05  3.4745408655813467e-05  3.2158129380893348e-05  2.9666522345397683e-05  2.7396291469282192e-05  2.5311352200673596e-05  2.3407005204794987e-05  2.1663380990653288e-05  2.0064428736681682e-05  1.8593486093172797e-05  1.7235739294555306e-05  1.5977666284687795e-05  1.4807539198900375e-05  1.3715286587334044e-05  1.2692630043171558e-05  1.1733059752372146e-05  1.0831886641511189e-05  9.9855506435751298e-06  9.1911187425314399e-06  8.4348668475966882e-06  7.6897172221135315e-06  6.8542788382222355e-06  5.8009759271766492e-06  4.5023014618895483e-06  3.0667945013995534e-06  1.6554216548115917e-06  3.6721421916497456e-07  -7.6295041849025046e-07  -1.7270693332281902e-06  -2.5258939105228200e-06  -3.1611890883565777e-06  -3.6328954594995412e-06  -3.9383235560630340e-06  -4.0721202857120931e-06  -4.0263585955277277e-06  -3.7908068745487388e-06  -3.3529314156070946e-06  -2.6984494778448096e-06  -1.8108847363232909e-06  -6.7387170399053724e-07  7.3298179919926466e-07  2.4161094676321349e-06  4.4127451646395175e-06  6.6032798772201520e-06  9.2545160881956773e-06  1.1198508114953416e-05  1.4723088085868804e-05  4.3536195082187964e-05  3.9941700424729273e-05  3.7814178253721280e-05  3.4855457241109644e-05  3.2258780841211258e-05  2.9756359902127731e-05  2.7474782515914836e-05  2.5378653387556394e-05  2.3463918860436763e-05  2.1711221333831270e-05  2.0104885549540926e-05  1.8628502350217680e-05  1.7267407785168526e-05  1.6008159217984185e-05  1.4839064128086946e-05  1.3750065133203598e-05  1.2732890366433399e-05  1.1781040574148094e-05  1.0889823497152614e-05  1.0055798974000785e-05  9.2756911800827913e-06  8.5359900260080148e-06  7.8193354779319917e-06  6.9907256902285063e-06  5.8916783333921846e-06  4.4928251428808147e-06  2.9355312882316043e-06  1.4507212084405615e-06  1.3883766246144648e-07  -9.9094116938219128e-07  -1.9441943728461947e-06  -2.7282361698590581e-06  -3.3477171266951784e-06  -3.8036475354683784e-06  -4.0935609540715198e-06  -4.2119755569710118e-06  -4.1507158553270618e-06  -3.8992969266786497e-06  -3.4449892287321621e-06  -2.7734188329944998e-06  -1.8681586156539328e-06  -7.1306987734314734e-07  7.1181504934808180e-07  2.4123143868327495e-06  4.4248553421208214e-06  6.6290252274378488e-06  9.2906672935006554e-06  1.1241322676784875e-05  1.4768522657746131e-05  4.3566672763314563e-05  3.9972361536223637e-05  3.7844460769323160e-05  3.4884181380020568e-05  3.2285356203436925e-05  2.9780301882296270e-05  2.7495863456967012e-05  2.5396819230945755e-05  2.3479308439359326e-05  2.1724140710617560e-05  2.0115774952308233e-05  1.8637906107109806e-05  1.7275942822405173e-05  1.6016495083733514e-05  1.4847910138273725e-05  1.3760168066991971e-05  1.2745042027796788e-05  1.1796091574293816e-05  1.0908692538707375e-05  1.0079560831334104e-05  9.3050091567647289e-06  8.5729738208501460e-06  7.8719034600271578e-06  7.0547448061915519e-06  5.9342368389093728e-06  4.4999179072692080e-06  2.8857875480642353e-06  1.3608157855464122e-06  4.6013927437781651e-08  -1.0791823250557567e-06  -2.0253690758483965e-06  -2.8019770924181742e-06  -3.4143694583993513e-06  -3.8637005865036121e-06  -4.1474155005444044e-06  -4.2598707620484250e-06  -4.1927240623105188e-06  -3.9353463081154261e-06  -3.4748976227316650e-06  -2.7969416523579410e