<?xml version="1.0"?>
<VTKFile type="UnstructuredGrid"  version="0.1"  >
<UnstructuredGrid>
<Piece  NumberOfPoints="1617" NumberOfCells="3072">
<Points>
<DataArray  type="Float64"  NumberOfComponents="3"  format="ascii">0 0 0  0.03125 0 0  0.0625 0 0  0.09375 0 0  0.125 0 0  0.15625 0 0  0.1875 0 0  0.21875 0 0  0.25 0 0  0.28125 0 0  0.3125 0 0  0.34375 0 0  0.375 0 0  0.40625 0 0  0.4375 0 0  0.46875 0 0  0.5 0 0  0.53125 0 0  0.5625 0 0  0.59375 0 0  0.625 0 0  0.65625 0 0  0.6875 0 0  0.71875 0 0  0.75 0 0  0.78125 0 0  0.8125 0 0  0.84375 0 0  0.875 0 0  0.90625 0 0  0.9375 0 0  0.96875 0 0  1 0 0  1.03125 0 0  1.0625 0 0  1.09375 0 0  1.125 0 0  1.15625 0 0  1.1875 0 0  1.21875 0 0  1.25 0 0  1.28125 0 0  1.3125 0 0  1.34375 0 0  1.375 0 0  1.40625 0 0  1.4375 0 0  1.46875 0 0  1.5 0 0  0 0.03125 0  0.03125 0.03125 0  0.0625 0.03125 0  0.09375 0.03125 0  0.125 0.03125 0  0.15625 0.03125 0  0.1875 0.03125 0  0.21875 0.03125 0  0.25 0.03125 0  0.28125 0.03125 0  0.3125 0.03125 0  0.34375 0.03125 0  0.375 0.03125 0  0.40625 0.03125 0  0.4375 0.03125 0  0.46875 0.03125 0  0.5 0.03125 0  0.53125 0.03125 0  0.5625 0.03125 0  0.59375 0.03125 0  0.625 0.03125 0  0.65625 0.03125 0  0.6875 0.03125 0  0.71875 0.03125 0  0.75 0.03125 0  0.78125 0.03125 0  0.8125 0.03125 0  0.84375 0.03125 0  0.875 0.03125 0  0.90625 0.03125 0  0.9375 0.03125 0  0.96875 0.03125 0  1 0.03125 0  1.03125 0.03125 0  1.0625 0.03125 0  1.09375 0.03125 0  1.125 0.03125 0  1.15625 0.03125 0  1.1875 0.03125 0  1.21875 0.03125 0  1.25 0.03125 0  1.28125 0.03125 0  1.3125 0.03125 0  1.34375 0.03125 0  1.375 0.03125 0  1.40625 0.03125 0  1.4375 0.03125 0  1.46875 0.03125 0  1.5 0.03125 0  0 0.0625 0  0.03125 0.0625 0  0.0625 0.0625 0  0.09375 0.0625 0  0.125 0.0625 0  0.15625 0.0625 0  0.1875 0.0625 0  0.21875 0.0625 0  0.25 0.0625 0  0.28125 0.0625 0  0.3125 0.0625 0  0.34375 0.0625 0  0.375 0.0625 0  0.40625 0.0625 0  0.4375 0.0625 0  0.46875 0.0625 0  0.5 0.0625 0  0.53125 0.0625 0  0.5625 0.0625 0  0.59375 0.0625 0  0.625 0.0625 0  0.65625 0.0625 0  0.6875 0.0625 0  0.71875 0.0625 0  0.75 0.0625 0  0.78125 0.0625 0  0.8125 0.0625 0  0.84375 0.0625 0  0.875 0.0625 0  0.90625 0.0625 0  0.9375 0.0625 0  0.96875 0.0625 0  1 0.0625 0  1.03125 0.0625 0  1.0625 0.0625 0  1.09375 0.0625 0  1.125 0.0625 0  1.15625 0.0625 0  1.1875 0.0625 0  1.21875 0.0625 0  1.25 0.0625 0  1.28125 0.0625 0  1.3125 0.0625 0  1.34375 0.0625 0  1.375 0.0625 0  1.40625 0.0625 0  1.4375 0.0625 0  1.46875 0.0625 0  1.5 0.0625 0  0 0.09375 0  0.03125 0.09375 0  0.0625 0.09375 0  0.09375 0.09375 0  0.125 0.09375 0  0.15625 0.09375 0  0.1875 0.09375 0  0.21875 0.09375 0  0.25 0.09375 0  0.28125 0.09375 0  0.3125 0.09375 0  0.34375 0.09375 0  0.375 0.09375 0  0.40625 0.09375 0  0.4375 0.09375 0  0.46875 0.09375 0  0.5 0.09375 0  0.53125 0.09375 0  0.5625 0.09375 0  0.59375 0.09375 0  0.625 0.09375 0  0.65625 0.09375 0  0.6875 0.09375 0  0.71875 0.09375 0  0.75 0.09375 0  0.78125 0.09375 0  0.8125 0.09375 0  0.84375 0.09375 0  0.875 0.09375 0  0.90625 0.09375 0  0.9375 0.09375 0  0.96875 0.09375 0  1 0.09375 0  1.03125 0.09375 0  1.0625 0.09375 0  1.09375 0.09375 0  1.125 0.09375 0  1.15625 0.09375 0  1.1875 0.09375 0  1.21875 0.09375 0  1.25 0.09375 0  1.28125 0.09375 0  1.3125 0.09375 0  1.34375 0.09375 0  1.375 0.09375 0  1.40625 0.09375 0  1.4375 0.09375 0  1.46875 0.09375 0  1.5 0.09375 0  0 0.125 0  0.03125 0.125 0  0.0625 0.125 0  0.09375 0.125 0  0.125 0.125 0  0.15625 0.125 0  0.1875 0.125 0  0.21875 0.125 0  0.25 0.125 0  0.28125 0.125 0  0.3125 0.125 0  0.34375 0.125 0  0.375 0.125 0  0.40625 0.125 0  0.4375 0.125 0  0.46875 0.125 0  0.5 0.125 0  0.53125 0.125 0  0.5625 0.125 0  0.59375 0.125 0  0.625 0.125 0  0.65625 0.125 0  0.6875 0.125 0  0.71875 0.125 0  0.75 0.125 0  0.78125 0.125 0  0.8125 0.125 0  0.84375 0.125 0  0.875 0.125 0  0.90625 0.125 0  0.9375 0.125 0  0.96875 0.125 0  1 0.125 0  1.03125 0.125 0  1.0625 0.125 0  1.09375 0.125 0  1.125 0.125 0  1.15625 0.125 0  1.1875 0.125 0  1.21875 0.125 0  1.25 0.125 0  1.28125 0.125 0  1.3125 0.125 0  1.34375 0.125 0  1.375 0.125 0  1.40625 0.125 0  1.4375 0.125 0  1.46875 0.125 0  1.5 0.125 0  0 0.15625 0  0.03125 0.15625 0  0.0625 0.15625 0  0.09375 0.15625 0  0.125 0.15625 0  0.15625 0.15625 0  0.1875 0.15625 0  0.21875 0.15625 0  0.25 0.15625 0  0.28125 0.15625 0  0.3125 0.15625 0  0.34375 0.15625 0  0.375 0.15625 0  0.40625 0.15625 0  0.4375 0.15625 0  0.46875 0.15625 0  0.5 0.15625 0  0.53125 0.15625 0  0.5625 0.15625 0  0.59375 0.15625 0  0.625 0.15625 0  0.65625 0.15625 0  0.6875 0.15625 0  0.71875 0.15625 0  0.75 0.15625 0  0.78125 0.15625 0  0.8125 0.15625 0  0.84375 0.15625 0  0.875 0.15625 0  0.90625 0.15625 0  0.9375 0.15625 0  0.96875 0.15625 0  1 0.15625 0  1.03125 0.15625 0  1.0625 0.15625 0  1.09375 0.15625 0  1.125 0.15625 0  1.15625 0.15625 0  1.1875 0.15625 0  1.21875 0.15625 0  1.25 0.15625 0  1.28125 0.15625 0  1.3125 0.15625 0  1.34375 0.15625 0  1.375 0.15625 0  1.40625 0.15625 0  1.4375 0.15625 0  1.46875 0.15625 0  1.5 0.15625 0  0 0.1875 0  0.03125 0.1875 0  0.0625 0.1875 0  0.09375 0.1875 0  0.125 0.1875 0  0.15625 0.1875 0  0.1875 0.1875 0  0.21875 0.1875 0  0.25 0.1875 0  0.28125 0.1875 0  0.3125 0.1875 0  0.34375 0.1875 0  0.375 0.1875 0  0.40625 0.1875 0  0.4375 0.1875 0  0.46875 0.1875 0  0.5 0.1875 0  0.53125 0.1875 0  0.5625 0.1875 0  0.59375 0.1875 0  0.625 0.1875 0  0.65625 0.1875 0  0.6875 0.1875 0  0.71875 0.1875 0  0.75 0.1875 0  0.78125 0.1875 0  0.8125 0.1875 0  0.84375 0.1875 0  0.875 0.1875 0  0.90625 0.1875 0  0.9375 0.1875 0  0.96875 0.1875 0  1 0.1875 0  1.03125 0.1875 0  1.0625 0.1875 0  1.09375 0.1875 0  1.125 0.1875 0  1.15625 0.1875 0  1.1875 0.1875 0  1.21875 0.1875 0  1.25 0.1875 0  1.28125 0.1875 0  1.3125 0.1875 0  1.34375 0.1875 0  1.375 0.1875 0  1.40625 0.1875 0  1.4375 0.1875 0  1.46875 0.1875 0  1.5 0.1875 0  0 0.21875 0  0.03125 0.21875 0  0.0625 0.21875 0  0.09375 0.21875 0  0.125 0.21875 0  0.15625 0.21875 0  0.1875 0.21875 0  0.21875 0.21875 0  0.25 0.21875 0  0.28125 0.21875 0  0.3125 0.21875 0  0.34375 0.21875 0  0.375 0.21875 0  0.40625 0.21875 0  0.4375 0.21875 0  0.46875 0.21875 0  0.5 0.21875 0  0.53125 0.21875 0  0.5625 0.21875 0  0.59375 0.21875 0  0.625 0.21875 0  0.65625 0.21875 0  0.6875 0.21875 0  0.71875 0.21875 0  0.75 0.21875 0  0.78125 0.21875 0  0.8125 0.21875 0  0.84375 0.21875 0  0.875 0.21875 0  0.90625 0.21875 0  0.9375 0.21875 0  0.96875 0.21875 0  1 0.21875 0  1.03125 0.21875 0  1.0625 0.21875 0  1.09375 0.21875 0  1.125 0.21875 0  1.15625 0.21875 0  1.1875 0.21875 0  1.21875 0.21875 0  1.25 0.21875 0  1.28125 0.21875 0  1.3125 0.21875 0  1.34375 0.21875 0  1.375 0.21875 0  1.40625 0.21875 0  1.4375 0.21875 0  1.46875 0.21875 0  1.5 0.21875 0  0 0.25 0  0.03125 0.25 0  0.0625 0.25 0  0.09375 0.25 0  0.125 0.25 0  0.15625 0.25 0  0.1875 0.25 0  0.21875 0.25 0  0.25 0.25 0  0.28125 0.25 0  0.3125 0.25 0  0.34375 0.25 0  0.375 0.25 0  0.40625 0.25 0  0.4375 0.25 0  0.46875 0.25 0  0.5 0.25 0  0.53125 0.25 0  0.5625 0.25 0  0.59375 0.25 0  0.625 0.25 0  0.65625 0.25 0  0.6875 0.25 0  0.71875 0.25 0  0.75 0.25 0  0.78125 0.25 0  0.8125 0.25 0  0.84375 0.25 0  0.875 0.25 0  0.90625 0.25 0  0.9375 0.25 0  0.96875 0.25 0  1 0.25 0  1.03125 0.25 0  1.0625 0.25 0  1.09375 0.25 0  1.125 0.25 0  1.15625 0.25 0  1.1875 0.25 0  1.21875 0.25 0  1.25 0.25 0  1.28125 0.25 0  1.3125 0.25 0  1.34375 0.25 0  1.375 0.25 0  1.40625 0.25 0  1.4375 0.25 0  1.46875 0.25 0  1.5 0.25 0  0 0.28125 0  0.03125 0.28125 0  0.0625 0.28125 0  0.09375 0.28125 0  0.125 0.28125 0  0.15625 0.28125 0  0.1875 0.28125 0  0.21875 0.28125 0  0.25 0.28125 0  0.28125 0.28125 0  0.3125 0.28125 0  0.34375 0.28125 0  0.375 0.28125 0  0.40625 0.28125 0  0.4375 0.28125 0  0.46875 0.28125 0  0.5 0.28125 0  0.53125 0.28125 0  0.5625 0.28125 0  0.59375 0.28125 0  0.625 0.28125 0  0.65625 0.28125 0  0.6875 0.28125 0  0.71875 0.28125 0  0.75 0.28125 0  0.78125 0.28125 0  0.8125 0.28125 0  0.84375 0.28125 0  0.875 0.28125 0  0.90625 0.28125 0  0.9375 0.28125 0  0.96875 0.28125 0  1 0.28125 0  1.03125 0.28125 0  1.0625 0.28125 0  1.09375 0.28125 0  1.125 0.28125 0  1.15625 0.28125 0  1.1875 0.28125 0  1.21875 0.28125 0  1.25 0.28125 0  1.28125 0.28125 0  1.3125 0.28125 0  1.34375 0.28125 0  1.375 0.28125 0  1.40625 0.28125 0  1.4375 0.28125 0  1.46875 0.28125 0  1.5 0.28125 0  0 0.3125 0  0.03125 0.3125 0  0.0625 0.3125 0  0.09375 0.3125 0  0.125 0.3125 0  0.15625 0.3125 0  0.1875 0.3125 0  0.21875 0.3125 0  0.25 0.3125 0  0.28125 0.3125 0  0.3125 0.3125 0  0.34375 0.3125 0  0.375 0.3125 0  0.40625 0.3125 0  0.4375 0.3125 0  0.46875 0.3125 0  0.5 0.3125 0  0.53125 0.3125 0  0.5625 0.3125 0  0.59375 0.3125 0  0.625 0.3125 0  0.65625 0.3125 0  0.6875 0.3125 0  0.71875 0.3125 0  0.75 0.3125 0  0.78125 0.3125 0  0.8125 0.3125 0  0.84375 0.3125 0  0.875 0.3125 0  0.90625 0.3125 0  0.9375 0.3125 0  0.96875 0.3125 0  1 0.3125 0  1.03125 0.3125 0  1.0625 0.3125 0  1.09375 0.3125 0  1.125 0.3125 0  1.15625 0.3125 0  1.1875 0.3125 0  1.21875 0.3125 0  1.25 0.3125 0  1.28125 0.3125 0  1.3125 0.3125 0  1.34375 0.3125 0  1.375 0.3125 0  1.40625 0.3125 0  1.4375 0.3125 0  1.46875 0.3125 0  1.5 0.3125 0  0 0.34375 0  0.03125 0.34375 0  0.0625 0.34375 0  0.09375 0.34375 0  0.125 0.34375 0  0.15625 0.34375 0  0.1875 0.34375 0  0.21875 0.34375 0  0.25 0.34375 0  0.28125 0.34375 0  0.3125 0.34375 0  0.34375 0.34375 0  0.375 0.34375 0  0.40625 0.34375 0  0.4375 0.34375 0  0.46875 0.34375 0  0.5 0.34375 0  0.53125 0.34375 0  0.5625 0.34375 0  0.59375 0.34375 0  0.625 0.34375 0  0.65625 0.34375 0  0.6875 0.34375 0  0.71875 0.34375 0  0.75 0.34375 0  0.78125 0.34375 0  0.8125 0.34375 0  0.84375 0.34375 0  0.875 0.34375 0  0.90625 0.34375 0  0.9375 0.34375 0  0.96875 0.34375 0  1 0.34375 0  1.03125 0.34375 0  1.0625 0.34375 0  1.09375 0.34375 0  1.125 0.34375 0  1.15625 0.34375 0  1.1875 0.34375 0  1.21875 0.34375 0  1.25 0.34375 0  1.28125 0.34375 0  1.3125 0.34375 0  1.34375 0.34375 0  1.375 0.34375 0  1
[...]
<PointData  Scalars="f_33"> 
<DataArray  type="Float64"  Name="f_33"  format="ascii">3.4064822792247608e-05  3.2339296424721998e-05  3.1457284978662407e-05  3.0385426658582780e-05  2.9177226532497654e-05  2.7849181093536011e-05  2.6460964651480664e-05  2.5056769038183123e-05  2.3665091553405520e-05  2.2302360566897375e-05  2.0977078971921524e-05  1.9693181194176358e-05  1.8452211293250327e-05  1.7254528191604181e-05  1.6099880387839629e-05  1.4987639462763679e-05  1.3916872584047864e-05  1.2886353757987813e-05  1.1894569205349621e-05  1.0939752232707342e-05  1.0019973150819761e-05  9.1333006272193995e-06  8.2780376364594984e-06  7.4530173919158947e-06  6.6579255875417995e-06  5.8936008966021189e-06  5.1622620507286701e-06  4.4676198460855609e-06  3.8148537356887327e-06  3.2104585457184126e-06  2.6619893960598117e-06  2.1777466573213284e-06  1.7664455351624027e-06  1.4369096452289106e-06  1.1978141151143819e-06  1.0574934691115614e-06  1.0237961316224598e-06  1.1039605652987019e-06  1.3043589411358334e-06  1.6299187647344590e-06  2.0827999902488006e-06  2.6592132204955735e-06  3.3469621427135113e-06  4.1108260735245969e-06  4.9164854520270047e-06  5.6160850153054052e-06  6.3787274615264547e-06  6.6969360532617556e-06  7.9746205884596242e-06  3.4911242594487140e-05  3.2400457782788214e-05  3.1541363717139342e-05  3.0429347693168994e-05  2.9208014013850534e-05  2.7853693136870795e-05  2.6443935075280235e-05  2.5025420085620774e-05  2.3625769824947622e-05  2.2259553946577002e-05  2.0933569426650381e-05  1.9650507341921014e-05  1.8411134796076774e-05  1.7215376923158426e-05  1.6062759067921552e-05  1.4952542774157747e-05  1.3883737117317558e-05  1.2855073375102291e-05  1.1864987460227234e-05  1.0911639710956649e-05  9.9929963628825482e-06  9.1069904207967545e-06  8.2517667920065105e-06  7.4259971250732152e-06  6.6292277677422453e-06  5.8622069211054492e-06  5.1271321753986136e-06  4.4277710561886819e-06  3.7694321666480394e-06  3.1587946083581493e-06  2.6036289221837973e-06  2.1124575256586991e-06  1.6942044972811636e-06  1.3578776553893371e-06  1.1123106327787824e-06  9.6598194481087849e-07  9.2689839290713635e-07  1.0025203203439887e-06  1.1996076486216732e-06  1.5237358199063269e-06  1.9782756974247222e-06  2.5609000665765164e-06  3.2624281591561942e-06  4.0477291602676846e-06  4.8913338193976151e-06  5.6168285243705522e-06  6.4431644895125386e-06  6.6804160612572178e-06  8.6416651120586709e-06  3.5691112975394570e-05  3.2825040429639296e-05  3.1921481936781330e-05  3.0613267203078565e-05  2.9316165533297846e-05  2.7882447283614323e-05  2.6416397035382279e-05  2.4959193441473203e-05  2.3535297261044926e-05  2.2155337439977155e-05  2.0822720518304591e-05  1.9537539230535758e-05  1.8298794881725884e-05  1.7105300769817309e-05  1.5955916472456829e-05  1.4849510912844590e-05  1.3784850047164821e-05  1.2760485910234531e-05  1.1774677699881150e-05  1.0825367080808091e-05  9.9102319238256965e-06  9.0268408737098357e-06  8.1729187385172459e-06  7.3467087489186448e-06  6.5473873217448573e-06  5.7754610903398780e-06  5.0330674547313867e-06  4.3241157379133917e-06  3.6542417898630905e-06  3.0305909030899201e-06  2.4614773066414315e-06  1.9559849694825195e-06  1.5235730303130862e-06  1.1737374118049216e-06  9.1576018609667523e-07  7.5856810762665134e-07  7.1068966820833710e-07  7.8030291556847224e-07  9.7524328686080750e-07  1.3027295511057203e-06  1.7685208914429556e-06  2.3733196496337672e-06  3.1117898740772010e-06  3.9502307892878079e-06  4.8691694737732619e-06  5.6690404201667655e-06  6.6360924909485773e-06  6.9747744024332800e-06  9.4778381460131182e-06  3.6353033203006997e-05  3.3401207599355147e-05  3.2478276927499381e-05  3.0972188130192361e-05  2.9567790847433026e-05  2.8018889392609556e-05  2.6467421727947407e-05  2.4945465867379622e-05  2.3475810664970829e-05  2.2065031904301723e-05  2.0712701345827891e-05  1.9415644462026848e-05  1.8170400713664782e-05  1.6974053007289825e-05  1.5824301354436132e-05  1.4719252697885043e-05  1.3657161581905972e-05  1.2636200319794463e-05  1.1654283452606487e-05  1.0708965677025916e-05  9.7974419252999207e-06  8.9166827266934073e-06  8.0637262822663569e-06  7.2361168568622162e-06  6.4324327157757193e-06  5.6528036136632401e-06  4.8993014253410453e-06  4.1761120515021155e-06  3.4894542999551141e-06  2.8472765711210008e-06  2.2588091394625762e-06  1.7340670502200047e-06  1.2833890034934538e-06  9.1707490136731963e-07  6.4515627355286631e-07  4.7731929441964169e-07  4.2296769006743771e-07  4.9141198778768859e-07  6.9204313412512994e-07  1.0341958006676959e-06  1.5263603076791921e-06  2.1723232663528331e-06  2.9697925159667399e-06  3.8866270360144195e-06  4.9041876142472504e-06  5.8192634233620044e-06  6.9330415035665539e-06  7.4409752965716225e-06  1.0152231830241860e-05  3.7043617811466026e-05  3.4067526506487833e-05  3.3091524703931439e-05  3.1446429841954108e-05  2.9927385809527067e-05  2.8253799784254051e-05  2.6602412802573239e-05  2.4998368233388121e-05  2.3466186381991873e-05  2.2009487644712153e-05  2.0624631966019498e-05  1.9305297737734921e-05  1.8045375480511200e-05  1.6839895136753291e-05  1.5685049916607096e-05  1.4577873646402041e-05  1.3515855221872370e-05  1.2496584376278179e-05  1.1517458501527095e-05  1.0575474335133867e-05  9.6671455309736389e-06  8.7886002783222016e-06  7.9359036613173563e-06  7.1056059871611675e-06  6.2954441007067365e-06  5.5050463640564495e-06  4.7364591710623007e-06  3.9943538707527040e-06  3.2858721983835987e-06  2.6201747332420342e-06  2.0078235706036510e-06  1.4601426609246482e-06  9.8867052242780157e-07  6.0477673571950844e-07  3.1947080835558703e-07  1.4341067600390011e-07  8.7083084430809030e-08  1.6112402251536887e-07  3.7660558291128214e-07  7.4494844818459881e-07  1.2770255959105380e-06  1.9789959519554289e-06  2.8502861078174488e-06  3.8592347590117312e-06  4.9858793656349837e-06  6.0248784362004569e-06  7.2755853207982663e-06  7.9226783129008836e-06  1.0734223397249178e-05  3.7750667723886331e-05  3.4759391981607834e-05  3.3729301060549586e-05  3.1983408597940254e-05  3.0355356046768596e-05  2.8564321037342753e-05  2.6809977075842571e-05  2.5116265959548514e-05  2.3511803115232753e-05  2.1998715377905055e-05  2.0571357851069777e-05  1.9220901978362411e-05  1.7938832916020609e-05  1.6718127318711863e-05  1.5553340655620017e-05  1.4440259483182727e-05  1.3375437276458291e-05  1.2355733623505626e-05  1.1377897389194899e-05  1.0438228257933043e-05  9.5323784657145304e-06  8.6553847099601818e-06  7.8020189089961992e-06  6.9674893345959786e-06  6.1484025520179675e-06  5.3437567125512618e-06  4.5556688842526526e-06  3.7896113607701383e-06  3.0541118375079349e-06  2.3600522416398109e-06  1.7197922568055037e-06  1.1463340466679232e-06  6.5267533736553147e-07  2.5141955794919565e-07  -4.5350761079887092e-08  -2.2595865267389812e-07  -2.7883132683043376e-07  -1.9207316650490585e-07  4.6878095130711774e-08  4.5112808022632891e-07  1.0332395862350152e-06  1.8007117862154409e-06  2.7533906866242930e-06  3.8586746687834216e-06  5.0936648616695138e-06  6.2488975079686931e-06  7.6150578101671495e-06  8.3652499017555750e-06  1.1231040970977656e-05  3.8448923746165587e-05  3.5444333034918160e-05  3.4367801818907695e-05  3.2543191792648884e-05  3.0819330556807984e-05  2.8924140370010079e-05  2.7071193134055588e-05  2.5288062529067047e-05  2.3608033947681348e-05  2.2033221926130166e-05  2.0557233276904615e-05  1.9169540342858411e-05  1.7859706642830899e-05  1.6618882180274874e-05  1.5440040207172808e-05  1.4317687149534859e-05  1.3247374958945969e-05  1.2225165451950774e-05  1.1247095446021687e-05  1.0308687073527345e-05  9.4045910225378087e-06  8.5285062948535254e-06  7.6735427304766552e-06  6.8331280409735457e-06  6.0023635364352362e-06  5.1794689774202077e-06  4.3668107688419342e-06  3.5711408358831610e-06  2.8030158228042215e-06  2.0756789586797952e-06  1.4037984287366457e-06  8.0238176929410548e-07  2.8603604245582101e-07  -1.3138841926139749e-07  -4.3681504966639687e-07  -6.1768857724393405e-07  -6.6154758440393325e-07  -5.5551379762060324e-07  -2.8593729256750895e-07  1.6139052602819645e-07  7.9992284858807172e-07  1.6374985054280904e-06  2.6732481923777653e-06  3.8724969784489737e-06  5.2082201358005878e-06  6.4655650880785369e-06  7.9252330891148695e-06  8.7512051675437934e-06  1.1650486705849951e-05  3.9118773108886338e-05  3.6102487999458782e-05  3.4987641626295601e-05  3.3099524333193145e-05  3.1294650782383273e-05  2.9309264827014976e-05  2.7366449433104907e-05  2.5499243992032437e-05  2.3745324419068582e-05  2.2108006122459384e-05  2.0581093060432839e-05  1.9153111222797835e-05  1.7812254797596255e-05  1.6548182263646485e-05  1.5352458290056866e-05  1.4218380494687087e-05  1.3140520230505199e-05  1.2114150251237534e-05  1.1134608030694690e-05  1.0196635079743181e-05  9.2938044904826714e-06  8.4182479085341414e-06  7.5609767834230179e-06  6.7130527013260488e-06  5.8675451465496873e-06  5.0217072697646341e-06  4.1784692057630825e-06  3.3466043004582840e-06  2.5396083125001076e-06  1.7738889814134645e-06  1.0669538728673639e-06  4.3604178755082362e-07  -1.0265443249121025e-07  -5.3422474929007299e-07  -8.4487485205684691e-07  -1.0214928508798881e-06  -1.0510862234024420e-06  -9.2020558374112982e-07  -6.1461204890297830e-07  -1.1961033069342488e-07  5.7840428614587509e-07  1.4867857209749016e-06  2.6031281328137518e-06  3.8899666192228452e-06  5.3156615381565086e-06  6.6598132228347502e-06  8.1941744822412670e-06  9.0767294505088624e-06  1.1998928212716212e-05  3.9745940972662771e-05  3.6719764722915965e-05  3.5573840716350784e-05  3.3634020855710195e-05  3.1761760773858755e-05  2.9699580319815102e-05  2.7677728599125266e-05  2.5734627494997025e-05  2.3911942425259978e-05  2.2214899564460175e-05  2.0638067662517104e-05  1.9169634853587092e-05  1.7796928051844399e-05  1.6508463846963137e-05  1.5294620116285723e-05  1.4147610061249861e-05  1.3061095816210254e-05  1.2029620394402680e-05  1.1047901112266630e-05  1.0109982175479159e-05  9.2083775347926405e-06  8.3334666142607050e-06  7.4736415073022601e-06  6.6167778133904328e-06  5.7531215122447113e-06  4.8786988431970933e-06  3.9975596878078548e-06  3.1216808678619342e-06  2.2688017660848922e-06  1.4594763132534070e-06  7.1452803015701358e-07  5.3446218288184257e-08  -5.0627595903806255e-07  -9.4910442174617990e-07  -1.2610059260620841e-06  -1.4287828493013351e-06  -1.4393679296594272e-06  -1.2792025262392271e-06  -9.3395385137861893e-07  -3.8898557885819429e-07  3.6887256092311299e-07  1.3459103785253945e-06  2.5377017967691148e-06  3.9037118884908373e-06  5.4077655501909592e-06  6.8244934025404782e-06  8.4184158178519998e-06  9.3440634708904670e-06  1.2283024157862272e-05  4.0319608123857211e-05  3.7285312020753899e-05  3.6114496787796962e-05  3.4132691959907827e-05  3.2205052249074737e-05  3.0078577107059815e-05  2.7989099624693721e-05  2.5979685891584363e-05  2.4095566218593315e-05  2.2344108041597677e-05  2.0720935303592738e-05  1.9214335841808623e-05  1.7811165016304219e-05  1.6499110259751950e-05  1.5267582893344247e-05  1.4107845815408065e-05  1.3012732574778566e-05  1.1976126500612338e-05  1.0992241513765691e-05  1.0054586727764856e-05  9.1547728777901256e-06  8.2813455048722852e-06  7.4194727262362259e-06  6.5526579784860586e-06  5.6670582990961196e-06  4.7570870935079041e-06  3.8289252184831718e-06  2.8996883411851854e-06  1.9932225021148292e-06  1.1353333163828378e-06  3.5040746003222158e-07  -3.4017689907627266e-07  -9.1828174651772498e-07  -1.3684653612414083e-06  -1.6771111437083769e-06  -1.8314947583354191e-06  -1.8189508357556732e-06  -1.6262395739895201e-06  -1.2393453361425686e-06  -6.4409865222554464e-07  1.7184677767790625e-07  1.2133922516945688e-06  2.4739141271497777e-06  3.9098698460039274e-06  5.4809893612790342e-06  6.9578109601877707e-06  8.5992951823145657e-06  9.5583140564932940e-06  1.2510026772483058e-05  4.0831169179385415e-05  3.7790374567331398e-05  3.6599907697540374e-05  3.4584362850341312e-05  3.2611861992877992e-05  3.0432557975357947e-05  2.8286669274737213e-05  2.6221065753925405e-05  2.4284070084348488e-05  2.2485122989770768e-05  2.0821015209453227e-05  1.9280408635199536e-05  1.7849974762450327e-05  1.6516833354345501e-05  1.5269627236777568e-05  1.4098791165552373e-05  1.2996389278182032e-05  1.1955683113172053e-05  1.0970484286772822e-05  1.0033967694783016e-05  9.1371893790118763e-06  8.2669841189022061e-06  7.4046799956488789e-06  6.5276663836635621e-06  5.6158717623070153e-06  4.6615040069776171e-06  3.6747823050133370e-06  2.6811877832224233e-06  1.7132408019182634e-06  8.0298221496329059e-07  -2.1970244708623544e-08  -7.3933759064025785e-07  -1.3314539684216697e-06  -1.7839434355133529e-06  -2.0843554307705181e-06  -2.2209854534974523e-06  -2.1819714721736590e-06  -1.9547068110726851e-06  -1.5257601481113905e-06  -8.8166305101766262e-07  -1.1078561625409568e-08  1.0894112443034858e-06  2.4110498859970678e-06  3.9075772729284864e-06  5.5352434936309388e-06  7.0614045960654748e-06  8.7408653909554570e-06  9.7259975710565754e-06  1.2687614460268012e-05  4.1273541473251568e-05  3.8227695272748539e-05  3.7022025387420321e-05  3.4979859401007760e-05  3.2971749874686942e-05  3.0750050029223943e-05  2.8558412074431682e-05  2.6446730956411902e-05  2.4465924281401236e-05  2.2627291733827476e-05  2.0928782403573814e-05  1.9359578214148364e-05  1.7906371748874428e-05  1.6555934463921211e-05  1.5296324417957929e-05  1.4117266271232220e-05  1.3010091835465318e-05  1.1967422405903626e-05  1.0982676607692838e-05  1.0048841080040741e-05  9.1569865374908136e-06  8.2926912872321367e-06  7.4331124513735487e-06  6.5469648483047384e-06  5.6041639124424663e-06  4.5938527893299142e-06  3.5339834665564917e-06  2.4637576554168802e-06  1.4275661141425686e-06  4.6388587993946546e-07  -3.9792090366097554e-07  -1.1365301402940201e-06  -1.7363025333019702e-06  -2.1850108550063404e-06  -2.4720449445613641e-06  -2.5871117790777956e-06  -2.5193759139553195e-06  -2.2569985314527201e-06  -1.7872218519032236e-06  -1.0973325664677318e-06  -1.7700392588708988e-07  9.7578753983030219e-07  2.3503866436189459e-06  3.8982320425755997e-06  5.5727581227143492e-06  7.1389531242499742e-06  8.8485772991179072e-06  9.8541832281462658e-06  1.2823536950859903e-05  4.1640813919013487e-05  3.8591200998161776e-05  3.7374140441885123e-05  3.5311586418097581e-05  3.3276067499512528e-05  3.1021442667506898e-05  2.8794014348450555e-05  2.6646015826158328e-05  2.4630466159667351e-05  2.2760243607678936e-05  2.1034364708854848e-05  1.9442587690485694e-05  1.7971772781977124e-05  1.6608536680091800e-05  1.5340545151456257e-05  1.4156961589158422e-05  1.3048448121881556e-05  1.2006942468523430e-05  1.1025332292016498e-05  1.0096367198921002e-05  9.2117840112827415e-06  8.3567372357664696e-06  7.5050133137864003e-06  6.6128737091614301e-06  5.6335103292278053e-06  4.5520882034270754e-06  3.4013150930363593e-06  2.2425892923344696e-06  1.1352040241382704e-06  1.2215532196749659e-07  -7.6875653029112758e-07  -1.5198733748321419e-06  -2.1192636808108534e-06  -2.5577060252818538e-06  -2.8267782220828684e-06  -2.9176802612172423e-06  -2.8205684251957780e-06  -2.5242975809709986e-06  -2.0166979666429125e-06  -1.2857106751170880e-06  -3.2187778485989358e-07  8.7564566441889694e-07  2.2946404320908046e-06  3.8847095671473201e-06  5.5971122837593853e-06  7.1951416281767103e-06  8.9283734103817508e-06  9.9498728664681160e-06  1.2925216654843353e-05  4.1928101144093408e-05  3.8875868383986053e-05  3.7650732163819814e-05  3.5573330017957989e-05  3.3517742631688367e-05  3.1238812606880346e-05  2.8984819385789375e-05  2.6809728015035199e-05  2.4768179655239752e-05  2.2874317157634927e-05  2.1128072958164241e-05  1.9519769553652672e-05  1.8036529989633663e-05  1.6664986600065454e-05  1.5392624037451695e-05  1.4208258554620934e-05  1.3102050140875695e-05  1.2065297994078016e-05  1.1090163673546257e-05  1.0168870459692805e-05  9.2940532770500854e-06  8.4513398429148000e-06  7.6145952970109810e-06  6.7220731224266599e-06  5.6997332599144003e-06  4.5286851556406525e-06  3.2681360922593049e-06  2.0136639236701873e-06  8.4020566060293310e-07  -2.1067374382690288e-07  -1.1179711509505606e-06  -1.8705345566232982e-06  -2.4612092987367373e-06  -2.8839293364267760e-06  -3.1322405765485268e-06  -3.1985223256336987e-06  -3.0736275106608946e-06  -2.7468577777907226e-06  -2.2064226950804271e-06  -1.4407194708175242e-06  -4.4093490543694382e-07  7.9287998627518204e-07  2.2473179253758931e-06  3.8706085807703443e-06  5.6124167238704852e-06  7.2348668109165274e-06  8.9860137960601043e-06  1.0019512526224982e-05  1.2999364665297493e-05  4.2131516322436561e-05  3.9077701398991139e-05  3.7847432289088727e-05  3.5760199937716614e-05  3.3691215262327670e-05  3.1395894330684494e-05  2.9123886566428549e-05  2.6930339087177453e-05  2.4871045695511234e-05  2.2961074834562096e-05  2.1201070064020648e-05  1.9581839448427688e-05  1.8090798620755804e-05  1.6714715472864300e-05  1.5441087431091213e-05  1.4258637607475798e-05  1.3157316943382200e-05  1.2128049549906644e-05  1.1162349427550225e-05  1.0251724523635417e-05  9.3888967569218350e-06  8.5599545375246149e-06  7.7452587120567871e-06  6.8582102432586794e-06  5.7875133408020976e-06  4.5114492767483707e-06  3.1284918767282666e-06  1.7829200191562812e-06  5.6070114633533538e-07  -5.0904059841900667e-07  -1.4174949983306853e-06  -2.1612145260398310e-06  -2.7373330937001893e-06  -3.1420617909554545e-06  -3.3701192643265470e-06  -3.4144612395871579e-06  -3.2662097176839390e-06  -2.9148091255174478e-06  -2.3486126086890628e-06  -1.5562563762155893e-06  -5.2933065042523359e-07  7.3151160978684001e-07  2.2120475803803216e-06  3.8595611564544861e-06  5.6226316062266887e-06  7.2626118555687564e-06  9.0265532030525718e-06  1.0068593220079636e-05  1.3051639741354334e-05  4.2248203488907934e-05  3.9193767571948264e-05  3.7961054748722047e-05  3.5868652509051839e-05  3.3792466435933230e-05  3.1488144277193925e-05  2.9206132434441995e-05  2.7002244716876368e-05  2.4932960059553034e-05  2.3013909995136270e-05  2.1246194383080066e-05  1.9620958165350778e-05  1.8125854203043006e-05  1.6747810708886170e-05  1.5474434305908925e-05  1.4294525860892929e-05  1.3198086664597521e-05  1.2176026820977053e-05  1.1219673047553924e-05  1.0320192548139965e-05  9.4693482643370165e-06  8.6532785955162109e-06  7.8630311749037119e-06  6.9804824473904795e-06  5.8659958118851329e-06  4.4960097112432696e-06  2.9982241983349772e-06  1.5841448850818885e-06  3.4066939635220511e-07  -7.2855941824119270e-07  -1.6274955071647487e-06  -2.3582027999492514e-06  -2.9199462323601226e-06  -3.3097258152872450e-06  -3.5225110893756731e-06  -3.5512877658534507e-06  -3.3871245524870578e-06  -3.0194051832909373e-06  -2.4364686794764762e-06  -1.6270267787087228e-06  -5.8286670638777941e-07  6.9502439203807803e-07  2.1919517272609178e-06  3.8546355806786202e-06  5.6310122535821491e-06  7.2819584910705369e-06  9.0539356510084259e-06  1.0101329978562683e-05  1.3086363334629933e-05  4.2276386305094833e-05  3.9222251035210846e-05  3.7989648995380730e-05  3.5896545688312323e-05  3.3819085869100238e-05  3.1512842228039737e-05  2.9228497756748994e-05  2.7022035106734976e-05  2.4950149293245535e-05  2.3028655368645265e-05  2.1258817615189615e-05  1.9631912863593479e-05  1.8135697934698267e-05  1.6757181862818373e-05  1.5484037410392068e-05  1.4305126593521754e-05  1.3210515009593965e-05  1.2191181088073260e-05  1.1238510003011600e-05  1.0343745704204046e-05  9.4980045164962463e-06  8.6885830367901581e-06  7.9123021637608786e-06  7.0395714324984213e-06  5.9034541379054709e-06  4.5000193824116245e-06  2.9483455953566599e-06  1.4961951976123875e-06  2.5100360340541057e-07  -8.1338618391013444e-07  -1.7057603334072761e-06  -2.4298579304119544e-06  -2.9852375039271826e-06  -3.3688747298123590e-06  -3.5756524568065310e-06  -3.5984651692348929e-06  -3.4282973716023808e-06  -3.0544634125837260e-06  -2.4652579938092294e-06  -1.6493865502361328e-06  -5.9867885209766695e-07 