<?xml version="1.0"?>
<VTKFile type="UnstructuredGrid"  version="0.1"  >
<UnstructuredGrid>
<Piece  NumberOfPoints="1617" NumberOfCells="3072">
<Points>
<DataArray  type="Float64"  NumberOfComponents="3"  format="ascii">0 0 0  0.03125 0 0  0.0625 0 0  0.09375 0 0  0.125 0 0  0.15625 0 0  0.1875 0 0  0.21875 0 0  0.25 0 0  0.28125 0 0  0.3125 0 0  0.34375 0 0  0.375 0 0  0.40625 0 0  0.4375 0 0  0.46875 0 0  0.5 0 0  0.53125 0 0  0.5625 0 0  0.59375 0 0  0.625 0 0  0.65625 0 0  0.6875 0 0  0.71875 0 0  0.75 0 0  0.78125 0 0  0.8125 0 0  0.84375 0 0  0.875 0 0  0.90625 0 0  0.9375 0 0  0.96875 0 0  1 0 0  1.03125 0 0  1.0625 0 0  1.09375 0 0  1.125 0 0  1.15625 0 0  1.1875 0 0  1.21875 0 0  1.25 0 0  1.28125 0 0  1.3125 0 0  1.34375 0 0  1.375 0 0  1.40625 0 0  1.4375 0 0  1.46875 0 0  1.5 0 0  0 0.03125 0  0.03125 0.03125 0  0.0625 0.03125 0  0.09375 0.03125 0  0.125 0.03125 0  0.15625 0.03125 0  0.1875 0.03125 0  0.21875 0.03125 0  0.25 0.03125 0  0.28125 0.03125 0  0.3125 0.03125 0  0.34375 0.03125 0  0.375 0.03125 0  0.40625 0.03125 0  0.4375 0.03125 0  0.46875 0.03125 0  0.5 0.03125 0  0.53125 0.03125 0  0.5625 0.03125 0  0.59375 0.03125 0  0.625 0.03125 0  0.65625 0.03125 0  0.6875 0.03125 0  0.71875 0.03125 0  0.75 0.03125 0  0.78125 0.03125 0  0.8125 0.03125 0  0.84375 0.03125 0  0.875 0.03125 0  0.90625 0.03125 0  0.9375 0.03125 0  0.96875 0.03125 0  1 0.03125 0  1.03125 0.03125 0  1.0625 0.03125 0  1.09375 0.03125 0  1.125 0.03125 0  1.15625 0.03125 0  1.1875 0.03125 0  1.21875 0.03125 0  1.25 0.03125 0  1.28125 0.03125 0  1.3125 0.03125 0  1.34375 0.03125 0  1.375 0.03125 0  1.40625 0.03125 0  1.4375 0.03125 0  1.46875 0.03125 0  1.5 0.03125 0  0 0.0625 0  0.03125 0.0625 0  0.0625 0.0625 0  0.09375 0.0625 0  0.125 0.0625 0  0.15625 0.0625 0  0.1875 0.0625 0  0.21875 0.0625 0  0.25 0.0625 0  0.28125 0.0625 0  0.3125 0.0625 0  0.34375 0.0625 0  0.375 0.0625 0  0.40625 0.0625 0  0.4375 0.0625 0  0.46875 0.0625 0  0.5 0.0625 0  0.53125 0.0625 0  0.5625 0.0625 0  0.59375 0.0625 0  0.625 0.0625 0  0.65625 0.0625 0  0.6875 0.0625 0  0.71875 0.0625 0  0.75 0.0625 0  0.78125 0.0625 0  0.8125 0.0625 0  0.84375 0.0625 0  0.875 0.0625 0  0.90625 0.0625 0  0.9375 0.0625 0  0.96875 0.0625 0  1 0.0625 0  1.03125 0.0625 0  1.0625 0.0625 0  1.09375 0.0625 0  1.125 0.0625 0  1.15625 0.0625 0  1.1875 0.0625 0  1.21875 0.0625 0  1.25 0.0625 0  1.28125 0.0625 0  1.3125 0.0625 0  1.34375 0.0625 0  1.375 0.0625 0  1.40625 0.0625 0  1.4375 0.0625 0  1.46875 0.0625 0  1.5 0.0625 0  0 0.09375 0  0.03125 0.09375 0  0.0625 0.09375 0  0.09375 0.09375 0  0.125 0.09375 0  0.15625 0.09375 0  0.1875 0.09375 0  0.21875 0.09375 0  0.25 0.09375 0  0.28125 0.09375 0  0.3125 0.09375 0  0.34375 0.09375 0  0.375 0.09375 0  0.40625 0.09375 0  0.4375 0.09375 0  0.46875 0.09375 0  0.5 0.09375 0  0.53125 0.09375 0  0.5625 0.09375 0  0.59375 0.09375 0  0.625 0.09375 0  0.65625 0.09375 0  0.6875 0.09375 0  0.71875 0.09375 0  0.75 0.09375 0  0.78125 0.09375 0  0.8125 0.09375 0  0.84375 0.09375 0  0.875 0.09375 0  0.90625 0.09375 0  0.9375 0.09375 0  0.96875 0.09375 0  1 0.09375 0  1.03125 0.09375 0  1.0625 0.09375 0  1.09375 0.09375 0  1.125 0.09375 0  1.15625 0.09375 0  1.1875 0.09375 0  1.21875 0.09375 0  1.25 0.09375 0  1.28125 0.09375 0  1.3125 0.09375 0  1.34375 0.09375 0  1.375 0.09375 0  1.40625 0.09375 0  1.4375 0.09375 0  1.46875 0.09375 0  1.5 0.09375 0  0 0.125 0  0.03125 0.125 0  0.0625 0.125 0  0.09375 0.125 0  0.125 0.125 0  0.15625 0.125 0  0.1875 0.125 0  0.21875 0.125 0  0.25 0.125 0  0.28125 0.125 0  0.3125 0.125 0  0.34375 0.125 0  0.375 0.125 0  0.40625 0.125 0  0.4375 0.125 0  0.46875 0.125 0  0.5 0.125 0  0.53125 0.125 0  0.5625 0.125 0  0.59375 0.125 0  0.625 0.125 0  0.65625 0.125 0  0.6875 0.125 0  0.71875 0.125 0  0.75 0.125 0  0.78125 0.125 0  0.8125 0.125 0  0.84375 0.125 0  0.875 0.125 0  0.90625 0.125 0  0.9375 0.125 0  0.96875 0.125 0  1 0.125 0  1.03125 0.125 0  1.0625 0.125 0  1.09375 0.125 0  1.125 0.125 0  1.15625 0.125 0  1.1875 0.125 0  1.21875 0.125 0  1.25 0.125 0  1.28125 0.125 0  1.3125 0.125 0  1.34375 0.125 0  1.375 0.125 0  1.40625 0.125 0  1.4375 0.125 0  1.46875 0.125 0  1.5 0.125 0  0 0.15625 0  0.03125 0.15625 0  0.0625 0.15625 0  0.09375 0.15625 0  0.125 0.15625 0  0.15625 0.15625 0  0.1875 0.15625 0  0.21875 0.15625 0  0.25 0.15625 0  0.28125 0.15625 0  0.3125 0.15625 0  0.34375 0.15625 0  0.375 0.15625 0  0.40625 0.15625 0  0.4375 0.15625 0  0.46875 0.15625 0  0.5 0.15625 0  0.53125 0.15625 0  0.5625 0.15625 0  0.59375 0.15625 0  0.625 0.15625 0  0.65625 0.15625 0  0.6875 0.15625 0  0.71875 0.15625 0  0.75 0.15625 0  0.78125 0.15625 0  0.8125 0.15625 0  0.84375 0.15625 0  0.875 0.15625 0  0.90625 0.15625 0  0.9375 0.15625 0  0.96875 0.15625 0  1 0.15625 0  1.03125 0.15625 0  1.0625 0.15625 0  1.09375 0.15625 0  1.125 0.15625 0  1.15625 0.15625 0  1.1875 0.15625 0  1.21875 0.15625 0  1.25 0.15625 0  1.28125 0.15625 0  1.3125 0.15625 0  1.34375 0.15625 0  1.375 0.15625 0  1.40625 0.15625 0  1.4375 0.15625 0  1.46875 0.15625 0  1.5 0.15625 0  0 0.1875 0  0.03125 0.1875 0  0.0625 0.1875 0  0.09375 0.1875 0  0.125 0.1875 0  0.15625 0.1875 0  0.1875 0.1875 0  0.21875 0.1875 0  0.25 0.1875 0  0.28125 0.1875 0  0.3125 0.1875 0  0.34375 0.1875 0  0.375 0.1875 0  0.40625 0.1875 0  0.4375 0.1875 0  0.46875 0.1875 0  0.5 0.1875 0  0.53125 0.1875 0  0.5625 0.1875 0  0.59375 0.1875 0  0.625 0.1875 0  0.65625 0.1875 0  0.6875 0.1875 0  0.71875 0.1875 0  0.75 0.1875 0  0.78125 0.1875 0  0.8125 0.1875 0  0.84375 0.1875 0  0.875 0.1875 0  0.90625 0.1875 0  0.9375 0.1875 0  0.96875 0.1875 0  1 0.1875 0  1.03125 0.1875 0  1.0625 0.1875 0  1.09375 0.1875 0  1.125 0.1875 0  1.15625 0.1875 0  1.1875 0.1875 0  1.21875 0.1875 0  1.25 0.1875 0  1.28125 0.1875 0  1.3125 0.1875 0  1.34375 0.1875 0  1.375 0.1875 0  1.40625 0.1875 0  1.4375 0.1875 0  1.46875 0.1875 0  1.5 0.1875 0  0 0.21875 0  0.03125 0.21875 0  0.0625 0.21875 0  0.09375 0.21875 0  0.125 0.21875 0  0.15625 0.21875 0  0.1875 0.21875 0  0.21875 0.21875 0  0.25 0.21875 0  0.28125 0.21875 0  0.3125 0.21875 0  0.34375 0.21875 0  0.375 0.21875 0  0.40625 0.21875 0  0.4375 0.21875 0  0.46875 0.21875 0  0.5 0.21875 0  0.53125 0.21875 0  0.5625 0.21875 0  0.59375 0.21875 0  0.625 0.21875 0  0.65625 0.21875 0  0.6875 0.21875 0  0.71875 0.21875 0  0.75 0.21875 0  0.78125 0.21875 0  0.8125 0.21875 0  0.84375 0.21875 0  0.875 0.21875 0  0.90625 0.21875 0  0.9375 0.21875 0  0.96875 0.21875 0  1 0.21875 0  1.03125 0.21875 0  1.0625 0.21875 0  1.09375 0.21875 0  1.125 0.21875 0  1.15625 0.21875 0  1.1875 0.21875 0  1.21875 0.21875 0  1.25 0.21875 0  1.28125 0.21875 0  1.3125 0.21875 0  1.34375 0.21875 0  1.375 0.21875 0  1.40625 0.21875 0  1.4375 0.21875 0  1.46875 0.21875 0  1.5 0.21875 0  0 0.25 0  0.03125 0.25 0  0.0625 0.25 0  0.09375 0.25 0  0.125 0.25 0  0.15625 0.25 0  0.1875 0.25 0  0.21875 0.25 0  0.25 0.25 0  0.28125 0.25 0  0.3125 0.25 0  0.34375 0.25 0  0.375 0.25 0  0.40625 0.25 0  0.4375 0.25 0  0.46875 0.25 0  0.5 0.25 0  0.53125 0.25 0  0.5625 0.25 0  0.59375 0.25 0  0.625 0.25 0  0.65625 0.25 0  0.6875 0.25 0  0.71875 0.25 0  0.75 0.25 0  0.78125 0.25 0  0.8125 0.25 0  0.84375 0.25 0  0.875 0.25 0  0.90625 0.25 0  0.9375 0.25 0  0.96875 0.25 0  1 0.25 0  1.03125 0.25 0  1.0625 0.25 0  1.09375 0.25 0  1.125 0.25 0  1.15625 0.25 0  1.1875 0.25 0  1.21875 0.25 0  1.25 0.25 0  1.28125 0.25 0  1.3125 0.25 0  1.34375 0.25 0  1.375 0.25 0  1.40625 0.25 0  1.4375 0.25 0  1.46875 0.25 0  1.5 0.25 0  0 0.28125 0  0.03125 0.28125 0  0.0625 0.28125 0  0.09375 0.28125 0  0.125 0.28125 0  0.15625 0.28125 0  0.1875 0.28125 0  0.21875 0.28125 0  0.25 0.28125 0  0.28125 0.28125 0  0.3125 0.28125 0  0.34375 0.28125 0  0.375 0.28125 0  0.40625 0.28125 0  0.4375 0.28125 0  0.46875 0.28125 0  0.5 0.28125 0  0.53125 0.28125 0  0.5625 0.28125 0  0.59375 0.28125 0  0.625 0.28125 0  0.65625 0.28125 0  0.6875 0.28125 0  0.71875 0.28125 0  0.75 0.28125 0  0.78125 0.28125 0  0.8125 0.28125 0  0.84375 0.28125 0  0.875 0.28125 0  0.90625 0.28125 0  0.9375 0.28125 0  0.96875 0.28125 0  1 0.28125 0  1.03125 0.28125 0  1.0625 0.28125 0  1.09375 0.28125 0  1.125 0.28125 0  1.15625 0.28125 0  1.1875 0.28125 0  1.21875 0.28125 0  1.25 0.28125 0  1.28125 0.28125 0  1.3125 0.28125 0  1.34375 0.28125 0  1.375 0.28125 0  1.40625 0.28125 0  1.4375 0.28125 0  1.46875 0.28125 0  1.5 0.28125 0  0 0.3125 0  0.03125 0.3125 0  0.0625 0.3125 0  0.09375 0.3125 0  0.125 0.3125 0  0.15625 0.3125 0  0.1875 0.3125 0  0.21875 0.3125 0  0.25 0.3125 0  0.28125 0.3125 0  0.3125 0.3125 0  0.34375 0.3125 0  0.375 0.3125 0  0.40625 0.3125 0  0.4375 0.3125 0  0.46875 0.3125 0  0.5 0.3125 0  0.53125 0.3125 0  0.5625 0.3125 0  0.59375 0.3125 0  0.625 0.3125 0  0.65625 0.3125 0  0.6875 0.3125 0  0.71875 0.3125 0  0.75 0.3125 0  0.78125 0.3125 0  0.8125 0.3125 0  0.84375 0.3125 0  0.875 0.3125 0  0.90625 0.3125 0  0.9375 0.3125 0  0.96875 0.3125 0  1 0.3125 0  1.03125 0.3125 0  1.0625 0.3125 0  1.09375 0.3125 0  1.125 0.3125 0  1.15625 0.3125 0  1.1875 0.3125 0  1.21875 0.3125 0  1.25 0.3125 0  1.28125 0.3125 0  1.3125 0.3125 0  1.34375 0.3125 0  1.375 0.3125 0  1.40625 0.3125 0  1.4375 0.3125 0  1.46875 0.3125 0  1.5 0.3125 0  0 0.34375 0  0.03125 0.34375 0  0.0625 0.34375 0  0.09375 0.34375 0  0.125 0.34375 0  0.15625 0.34375 0  0.1875 0.34375 0  0.21875 0.34375 0  0.25 0.34375 0  0.28125 0.34375 0  0.3125 0.34375 0  0.34375 0.34375 0  0.375 0.34375 0  0.40625 0.34375 0  0.4375 0.34375 0  0.46875 0.34375 0  0.5 0.34375 0  0.53125 0.34375 0  0.5625 0.34375 0  0.59375 0.34375 0  0.625 0.34375 0  0.65625 0.34375 0  0.6875 0.34375 0  0.71875 0.34375 0  0.75 0.34375 0  0.78125 0.34375 0  0.8125 0.34375 0  0.84375 0.34375 0  0.875 0.34375 0  0.90625 0.34375 0  0.9375 0.34375 0  0.96875 0.34375 0  1 0.34375 0  1.03125 0.34375 0  1.0625 0.34375 0  1.09375 0.34375 0  1.125 0.34375 0  1.15625 0.34375 0  1.1875 0.34375 0  1.21875 0.34375 0  1.25 0.34375 0  1.28125 0.34375 0  1.3125 0.34375 0  1.34375 0.34375 0  1.375 0.34375 0  1
[...]
<PointData  Scalars="f_33"> 
<DataArray  type="Float64"  Name="f_33"  format="ascii">2.0631900300452542e-05  2.1303423206974865e-05  2.1668026624400882e-05  2.1598644897222259e-05  2.1237287154244746e-05  2.0726680029757915e-05  2.0126632135698648e-05  1.9479638430765673e-05  1.8814377843674998e-05  1.8148204580494950e-05  1.7490393012545332e-05  1.6844944031153725e-05  1.6212717856584238e-05  1.5592871680854639e-05  1.4983720697883627e-05  1.4383192019190292e-05  1.3789029454913421e-05  1.3198868940148979e-05  1.2610265843890453e-05  1.2020726751955728e-05  1.1427779112725193e-05  1.0829097651082334e-05  1.0222692261569023e-05  9.6071463918219109e-06  8.9818792118348649e-06  8.3473931302830574e-06  7.7054649250644998e-06  7.0592462342063456e-06  6.4132559073560167e-06  5.7732677084143190e-06  5.1461157635290062e-06  4.5394519307906437e-06  3.9614918781185461e-06  3.4207804025350082e-06  2.9259927358063542e-06  2.4857673223149140e-06  2.1085326255031175e-06  1.8022492790258040e-06  1.5739140115758405e-06  1.4286651737564319e-06  1.3681482939970343e-06  1.3883764295525688e-06  1.4760219474898739e-06  1.6060335580550414e-06  1.7320307204682595e-06  1.8391918630728913e-06  1.6075327392804413e-06  1.0178270256750758e-06  4.9257608359903855e-07  2.0319346887776814e-05  2.1127298503386237e-05  2.1610239907525457e-05  2.1573565151859459e-05  2.1184036097291981e-05  2.0659456425756809e-05  2.0051157395732239e-05  1.9399863388649500e-05  1.8734132508670744e-05  1.8070626390642512e-05  1.7417710256913267e-05  1.6778512722506790e-05  1.6153190088579991e-05  1.5540399713661774e-05  1.4938137196857365e-05  1.4344141762181331e-05  1.3756051326239484e-05  1.3171437216000585e-05  1.2587801629111778e-05  1.2002589153118267e-05  1.1413244541641576e-05  1.0817335518629429e-05  1.0212745660465997e-05  9.5979259148662392e-06  8.9721757231886465e-06  8.3359109312217507e-06  7.6908713873172824e-06  7.0402294880494745e-06  6.3885802760233384e-06  5.7418179031234619e-06  5.1069247087347600e-06  4.4917120438408423e-06  3.9045543053226116e-06  3.3541504878132123e-06  2.8493327411431639e-06  2.3989196190374551e-06  2.0115767061668286e-06  1.6956038306828018e-06  1.4584809200867522e-06  1.3059955492389960e-06  1.2405521724188537e-06  1.2589239173572668e-06  1.3481044438104775e-06  1.4833356708249769e-06  1.6138075360050042e-06  1.7350714088829194e-06  1.5010435140717214e-06  8.5556274843352997e-07  1.2966642825543674e-07  2.0086345981534011e-05  2.0992222799759712e-05  2.1599883366120006e-05  2.1640534471892687e-05  2.1222233551952342e-05  2.0672071105960900e-05  2.0036391117115362e-05  1.9361342437469094e-05  1.8678453856140868e-05  1.8004507224153648e-05  1.7346831173331929e-05  1.6707148942794971e-05  1.6084269588426605e-05  1.5475762870688834e-05  1.4878840163429229e-05  1.4290716875666931e-05  1.3708691999207290e-05  1.3130105177844889e-05  1.2552267390547342e-05  1.1972420966896717e-05  1.1387763567495051e-05  1.0795558048255003e-05  1.0193336226576863e-05  9.5791849059169982e-06  8.9520788477431387e-06  8.3122051130231079e-06  7.6612157785672519e-06  7.0023572136420296e-06  6.3404515609772331e-06  5.6817400194754012e-06  5.0336261258326192e-06  4.4043724881154462e-06  3.8028048973990556e-06  3.2380666143713593e-06  2.7194465527105658e-06  2.2562791833177571e-06  1.8578725312106258e-06  1.5333680220354033e-06  1.2913261263997995e-06  1.1388162668306085e-06  1.0795012235165159e-06  1.1110133891592746e-06  1.2198835300157744e-06  1.3789948724690164e-06  1.5309104617389843e-06  1.6637217328606985e-06  1.3690111116497540e-06  6.2002130776990413e-07  -2.8470856315549560e-07  1.9959390527728421e-05  2.0908126393798131e-05  2.1608055144895873e-05  2.1727256741040893e-05  2.1301125300239783e-05  2.0733018288387622e-05  2.0066954143751551e-05  1.9361294793617953e-05  1.8652918857480165e-05  1.7960318913464732e-05  1.7290712719170335e-05  1.6644804334388426e-05  1.6020084716949661e-05  1.5412879175718898e-05  1.4819389122691068e-05  1.4236080241381145e-05  1.3659716303979963e-05  1.3087241423834907e-05  1.2515630673386529e-05  1.1941778200580954e-05  1.1362467818254662e-05  1.0774458703116024e-05  1.0174703810763089e-05  9.5606924475951804e-06  8.9308723479948733e-06  8.2850725730836742e-06  7.6248340292495401e-06  6.9535710451612163e-06  6.2765314256993637e-06  5.6005755553412752e-06  4.9338364310808796e-06  4.2853399399810111e-06  3.6646589258841396e-06  3.0816536845623170e-06  2.5463229488960180e-06  2.0687550890815469e-06  1.6591183878754261e-06  1.3275640210777496e-06  1.0837873864403261e-06  9.3596354148351246e-07  8.8846838715552016e-07  9.3864236034031426e-07  1.0707838938852738e-06  1.2525291995681330e-06  1.4166562810123714e-06  1.5375621208405185e-06  1.1782437376888230e-06  3.3105800055052673e-07  -6.6292710142063909e-07  1.9938784786329195e-05  2.0911561075612945e-05  2.1665058447017584e-05  2.1832415725117671e-05  2.1409686327237208e-05  2.0829944000657056e-05  2.0135863330572924e-05  1.9399108053908704e-05  1.8661987535371731e-05  1.7945948847263013e-05  1.7259162223763575e-05  1.6602030578239611e-05  1.5971122898441254e-05  1.5361678390323186e-05  1.4768893332514689e-05  1.4188408028251112e-05  1.3616344528669235e-05  1.3049139135752683e-05  1.2483317166421404e-05  1.1915298754667791e-05  1.1341299262370644e-05  1.0757378121003654e-05  1.0159674731477815e-05  9.5448340577320210e-06  8.9105662951095138e-06  8.2562242273258550e-06  7.5832524298113390e-06  6.8953891090724783e-06  6.1985770117487322e-06  5.5006279009607771e-06  4.8107458552366283e-06  4.1390303205469787e-06  3.4960582479226579e-06  2.8926047058027844e-06  2.3395174250648736e-06  1.8477156955789334e-06  1.4282244699239620e-06  1.0920799699281971e-06  8.4980476984973047e-07  7.1011678248516976e-07  6.7723717445872976e-07  7.4706493851085879e-07  9.0042404624056336e-07  1.0989339360741561e-06  1.2664914594959269e-06  1.3683962141253460e-06  9.6031662141465819e-07  5.5005565840667567e-08  -9.7769275242234243e-07  2.0000861119585569e-05  2.0986292180312051e-05  2.1766862780319890e-05  2.1959768479113675e-05  2.1541250212020729e-05  2.0951442216864835e-05  2.0233135772268856e-05  1.9467799444433591e-05  1.8702153558919539e-05  1.7961138040704992e-05  1.7254519608677900e-05  1.6583017564018559e-05  1.5942748947359538e-05  1.5328164205654756e-05  1.4733602676306087e-05  1.4153925560050618e-05  1.3584601517237482e-05  1.3021519305414213e-05  1.2460698000819530e-05  1.1898003540068524e-05  1.1328959425653240e-05  1.0748738812221433e-05  1.0152415867093400e-05  9.5355073898931886e-06  8.8947401634022753e-06  8.2288672364419439e-06  7.5392949543210518e-06  6.8303275941455334e-06  6.1089740375650718e-06  5.3844127732144511e-06  4.6672994287384376e-06  3.9691020819784248e-06  3.3015928945387465e-06  2.6765519136885076e-06  2.1056748571644622e-06  1.6006229243809667e-06  1.1730900704591550e-06  8.3468716082740109e-07  5.9630406966295824e-07  4.6658621181884196e-07  4.4888300925535136e-07  5.3699793488338636e-07  7.0804825605269177e-07  9.1838923910148810e-07  1.0857686591318523e-06  1.1714217200991151e-06  7.3155178874489426e-07  -2.0480849354337791e-07  -1.2535178212998023e-06  2.0120814346300703e-05  2.1112821549084696e-05  2.1905870299842414e-05  2.2110496245856202e-05  2.1691981454215075e-05  2.1091292449604984e-05  2.0351875404227069e-05  1.9560931859535973e-05  1.8768611353478946e-05  1.8003162300799018e-05  1.7276093932693531e-05  1.6588809324118808e-05  1.5937351067521594e-05  1.5315678542829006e-05  1.4717470099056618e-05  1.4136918849938231e-05  1.3568894608187137e-05  1.3008762550873220e-05  1.2452041074575873e-05  1.1894020501812716e-05  1.1329455138909223e-05  1.0752461312716649e-05  1.0156767158284939e-05  9.5364086445288242e-06  8.8868109085180271e-06  8.2059812242186679e-06  7.4954073716194987e-06  6.7603351783898713e-06  6.0093634390703830e-06  5.2535659505767154e-06  4.5054694456882265e-06  3.7781672768958567e-06  3.0847196843727582e-06  2.4378681765134279e-06  1.8500079783858532e-06  1.3333095000373090e-06  8.9982531380736986e-07  5.6135182761277931e-07  3.2868581715491516e-07  2.0990809017582690e-07  2.0707488544698813e-07  3.1173255330199239e-07  4.9768601047759633e-07  7.1730105086147242e-07  8.8456428832670486e-07  9.5951522393926609e-07  5.0091928256325489e-07  -4.5038471211808273e-07  -1.5046058971971008e-06  2.0278002750376869e-05  2.1273432617471409e-05  2.2071455456949302e-05  2.2279725426948036e-05  2.1856989465546263e-05  2.1244497014878999e-05  2.0486167783729479e-05  1.9672380432742983e-05  1.8855965435782999e-05  1.8067871403680782e-05  1.7321203993486666e-05  1.6618187908477141e-05  1.5955020094269794e-05  1.5325393330529466e-05  1.4722501843518285e-05  1.4139993231950673e-05  1.3572221230781603e-05  1.3014091719026154e-05  1.2460681668433344e-05  1.1906749753241890e-05  1.1346266615361569e-05  1.0772148756223632e-05  1.0176453697286814e-05  9.5512653957952897e-06  8.8902547203853732e-06  8.1904879237293073e-06  7.4537549233761764e-06  6.6868384478901676e-06  5.9006850300567591e-06  5.1089412089845258e-06  4.3264481194728497e-06  3.5680977544312523e-06  2.8481861417317117e-06  2.1802100627696482e-06  1.5769672269284800e-06  1.0507899404659737e-06  6.1371263662006649e-07  2.7732478146391727e-07  5.1946107901383609e-08  -5.5228997464720352e-08  -4.3598616986237679e-08  7.6268545296233835e-08  2.7547431519863542e-07  5.0354712313982171e-07  6.7227677260291331e-07  7.4169987131206651e-07  2.7308764679197353e-07  -6.8449099905103038e-07  -1.7396268521206647e-06  2.0456020069821363e-05  2.1453312649540066e-05  2.2252599883050169e-05  2.2460030068035276e-05  2.2030399766339773e-05  2.1405738140245137e-05  2.0630236129892173e-05  1.9796232748139753e-05  1.8958609826314043e-05  1.8150355881644765e-05  1.7385931302492559e-05  1.6668361176296811e-05  1.5994092314529871e-05  1.5356686277492879e-05  1.4748979346034460e-05  1.4164170753163716e-05  1.3596173289345660e-05  1.3039506748743840e-05  1.2488900348408756e-05  1.1938691217409417e-05  1.1382138449837986e-05  1.0810869645034407e-05  1.0214892657287824e-05  9.5836724131578006e-06  8.9084283308837283e-06  8.1849974577835156e-06  7.4158780259067376e-06  6.6103654246989023e-06  5.7828703875427639e-06  4.9504629003244949e-06  4.1307060017286730e-06  3.3402912496366807e-06  2.5944803991406363e-06  1.9071217628113380e-06  1.2909736916816679e-06  7.5810132432731442e-07  3.2012644236440851e-07  -1.1915707763813821e-08  -2.2846073981818343e-07  -3.2336664272596575e-07  -2.9747057483710688e-07  -1.6318095003047721e-07  4.8492709517686380e-08  2.8509158732028275e-07  4.5709871933514843e-07  5.2488879283126442e-07  5.1682445838152256e-08  -9.0763811235539869e-07  -1.9617286331526508e-06  2.0641616809715504e-05  2.1640012949342041e-05  2.2438817442709352e-05  2.2643184992792335e-05  2.2205504358763878e-05  2.1568994080511234e-05  2.0778075766916050e-05  1.9926496650681761e-05  1.9070681893023917e-05  1.8245142134734699e-05  1.7465444631892289e-05  1.6735311226650755e-05  1.6051449722660112e-05  1.5407355328756805e-05  1.4795578903136580e-05  1.4208926425514341e-05  1.3640910607770669e-05  1.3085711780128040e-05  1.2537808544064057e-05  1.1991282128933531e-05  1.1438872782348788e-05  1.0870941266163709e-05  1.0275025968391268e-05  9.6369914135862505e-06  8.9444559199007886e-06  8.1915708789188682e-06  7.3823177222262393e-06  6.5301576622321706e-06  5.6546114246146266e-06  4.7771602878427675e-06  3.9183050872945173e-06  3.0962072616268155e-06  2.3265097573040639e-06  1.6227839497600232e-06  9.9718479672064109e-07  4.6104675373511447e-07  2.5217354210104240e-08  -3.0008707090967336e-07  -5.0621978691573993e-07  -5.8812871239429754e-07  -5.4796748260540926e-07  -3.9967241866575886e-07  -1.7586824252945835e-07  6.9581088894215377e-08  2.4633351588944325e-07  3.1510728686408131e-07  -1.5945468989848785e-07  -1.1182301897858779e-06  -2.1705202776116675e-06  2.0823795188063698e-05  2.1822936361778386e-05  2.2620542634688319e-05  2.2821000369092791e-05  2.2375221566710117e-05  2.1727803335044100e-05  2.0923432072989945e-05  2.0056973278284591e-05  1.9186027893995086e-05  1.8346266997396360e-05  1.7554144097003872e-05  1.6813956602919263e-05  1.6122649849623860e-05  1.5473679153161344e-05  1.4859346742977033e-05  1.4272084233121895e-05  1.3704999881366993e-05  1.3151921196285294e-05  1.2607131530781922e-05  1.2064635956000248e-05  1.1517005683677926e-05  1.0953571620258372e-05  1.0359038308870338e-05  9.7141992701662677e-06  9.0010593387321031e-06  8.2113399651744029e-06  7.3520560789010343e-06  6.4436997181723524e-06  5.5132475292027652e-06  4.5875004793888570e-06  3.6895921224386574e-06  2.8382606924222956e-06  2.0485449746882116e-06  1.3329061750497450e-06  7.0227919690616215e-07  1.6684744475813047e-07  -2.6358198212804467e-07  -5.7975720099784177e-07  -7.7398870819691211e-07  -8.4224531563717155e-07  -7.8780859212204235e-07  -6.2583411301911116e-07  -3.9016149544132266e-07  -1.3565995924875023e-07  4.6774165718455366e-08  1.1811807906417357e-07  -3.5594075977107484e-07  -1.3130764117023295e-06  -2.3633589801387880e-06  2.0993242314685963e-05  2.1992967733800892e-05  2.2789212741218886e-05  2.2985732511320109e-05  2.2532534658899064e-05  2.1875610776309161e-05  2.1059941285307375e-05  2.0181319273700206e-05  1.9298266221589143e-05  1.8447361144647856e-05  1.7645765875502535e-05  1.6898252291272936e-05  1.6201980357346016e-05  1.5550387245471101e-05  1.4935559591668349e-05  1.4349566548701868e-05  1.3785077583344105e-05  1.3235483819002060e-05  1.2694832059479065e-05  1.2157143187603151e-05  1.1615324021420768e-05  1.1058259730331936e-05  1.0467847171077626e-05  9.8175962847509636e-06  9.0802123966543393e-06  8.2438332603863145e-06  7.3217107181245366e-06  6.3463174983147349e-06  5.3551044819201271e-06  4.3803918435873646e-06  3.4465579454315933e-06  2.5712264260006293e-06  1.7674672128153095e-06  1.0457269765861218e-06  4.1519721836150660e-07  -1.1535296653025919e-07  -5.3725629854035916e-07  -8.4221916257398003e-07  -1.0234241154383460e-06  -1.0777033192068054e-06  -1.0092362675772766e-06  -8.3410454030928999e-07  -5.8703629906566804e-07  -3.2361664078271008e-07  -1.3512407573810532e-07  -6.0404141568178661e-08  -5.3297315431858735e-07  -1.4880294834659887e-06  -2.5363587944038427e-06  2.1142046690340659e-05  2.2142289142842487e-05  2.2937309176751974e-05  2.3130341271252537e-05  2.2670844413030155e-05  2.2006099681510871e-05  2.1181379551504368e-05  2.0293249494593127e-05  1.9400963006541512e-05  1.8541820447181918e-05  1.7733555912701110e-05  1.6981343861561497e-05  1.6282553350768480e-05  1.5630645005321117e-05  1.5017553003212269e-05  1.4435034832492808e-05  1.3875311009033092e-05  1.3331234486842376e-05  1.2796446389712943e-05  1.2264834476403393e-05  1.1730137694025891e-05  1.1181756615559407e-05  1.0600100534350037e-05  9.9480269084146447e-06  9.1821970080467792e-06  8.2857436069245569e-06  7.2846172236643296e-06  6.2314216503869134e-06  5.1770368882331142e-06  4.1574555514307601e-06  3.1951619330407840e-06  2.3041885806142289e-06  1.4941912333665813e-06  7.7293457945926467e-07  1.4765519563251389e-07  -3.7427424126278944e-07  -7.8520481591664456e-07  -1.0776336899834182e-06  -1.2454207930781290e-06  -1.2860407921967156e-06  -1.2043219112242503e-06  -1.0170010156273072e-06  -7.5942475254072369e-07  -4.8767222487238257e-07  -2.9327886640934011e-07  -2.1496970223986708e-07  -6.8563375869939395e-07  -1.6385599845787102e-06  -2.6851312024567653e-06  2.1263609590601151e-05  2.2264340338180129e-05  2.3058431582860299e-05  2.3248697123888555e-05  2.2784263319479229e-05  2.2113511864114161e-05  2.1281972986935676e-05  2.0386835566767372e-05  1.9487926539315728e-05  1.8623114434106296e-05  1.7810595274164204e-05  1.7055891724375623e-05  1.6356589268611073e-05  1.5706234881128868e-05  1.5096716229807104e-05  1.4519603969229648e-05  1.3966763461214312e-05  1.3430519802763183e-05  1.2903903116900552e-05  1.2380259129363414e-05  1.1854160071902817e-05  1.1316439070188832e-05  1.0750208768137083e-05  1.0102462559467209e-05  9.3030124791539226e-06  8.3291833685766851e-06  7.2309314605521967e-06  6.0930514246615168e-06  4.9805613751800279e-06  3.9272277588101146e-06  2.9486297245763372e-06  2.0526801315329683e-06  1.2448040637486547e-06  5.3008767579748627e-07  -8.5889519569218938e-08  -5.9679564136412900e-07  -9.9567035139190877e-07  -1.2755128955093046e-06  -1.4306025936823485e-06  -1.4588134529796669e-06  -1.3653827387877910e-06  -1.1674661117878396e-06  -9.0080826281024591e-07  -6.2180837971377744e-07  -4.2216192230572013e-07  -3.4051047273945070e-07  -8.0924881512091010e-07  -1.7602472104909255e-06  -2.8053451810749611e-06  2.1352671750086690e-05  2.2353871924270467e-05  2.3147411241756879e-05  2.3335776137125014e-05  2.2867880844722408e-05  2.2192959403241680e-05  2.1356738451907279e-05  2.0456873381373301e-05  1.9553612050397588e-05  1.8685246179539439e-05  1.7870326151063869e-05  1.7114662444015050e-05  1.6416052044930611e-05  1.5768181767016839e-05  1.5163007135253296e-05  1.4592085638217416e-05  1.4047150062217045e-05  1.3520240557156877e-05  1.3003838686974191e-05  1.2490518631200679e-05  1.1974645372934192e-05  1.1448196094356759e-05  1.0904284547913775e-05  1.0266883701525076e-05  9.4285259582712648e-06  8.3617872852310228e-06  7.1527839875770488e-06  5.9339635317031333e-06  4.7800466181517098e-06  3.7110649369340196e-06  2.7306557935043454e-06  1.8398250131311289e-06  1.0404520783200578e-06  3.3586455432714911e-07  -2.6924040551699993e-07  -7.6899608976391812e-07  -1.1567149777552577e-06  -1.4255900748200547e-06  -1.5700753451806156e-06  -1.5882319686959327e-06  -1.4855087189807999e-06  -1.2792923513245751e-06  -1.0055549789398264e-06  -7.2088295471658728e-07  -5.1705902230519984e-07  -4.3267032137065433e-07  -8.9974268577246587e-07  -1.8491899981714034e-06  -2.8931626525071391e-06  2.1405392889281563e-05  2.2407041047818452e-05  2.3200442510027283e-05  2.3387844181940194e-05  2.2918003239118368e-05  2.2240716388230286e-05  2.1401824928532517e-05  2.0499281048770975e-05  1.9593594520975588e-05  1.8723327228625744e-05  1.7907260741528872e-05  1.7151404781021241e-05  1.6453719961654472e-05  1.5808029159807529e-05  1.5206403196846315e-05  1.4640498405959747e-05  1.4102121995528027e-05  1.3583357504204062e-05  1.3076549765742424e-05  1.2573945242810483e-05  1.2068645339779001e-05  1.1552822077039804e-05  1.1033421875904908e-05  1.0403828263346392e-05  9.5284988068687217e-06  8.3774001216724361e-06  7.0618954842970445e-06  5.7823774842514781e-06  4.6133938344119630e-06  3.5472528186128280e-06  2.5752544257071309e-06  1.6942201592182395e-06  9.0464504223918972e-07  2.0945547285819484e-07  -3.8672853728986199e-07  -8.7802699520319271e-07  -1.2577288201150971e-06  -1.5190207500807174e-06  -1.6563776535017045e-06  -1.6679119321123058e-06  -1.5591517164726232e-06  -1.3475840033252650e-06  -1.0692859075126979e-06  -7.8093423923029451e-07  -5.7434853111930768e-07  -4.8809130062649927e-07  -9.5395030623603212e-07  -1.9023400570742995e-06  -2.9455776669926365e-06  2.1419438610846017e-05  2.2421509032198826e-05  2.3215203524409962e-05  2.3402612671772711e-05  2.2932351203843707e-05  2.2254463700545078e-05  2.1414811860064821e-05  2.0511464521842724e-05  1.9605025891067759e-05  1.8734163219454134e-05  1.7917746677046979e-05  1.7161864342621511e-05  1.6464542001551096e-05  1.5819659065375597e-05  1.5219338663748764e-05  1.4655291059555599e-05  1.4119384862375145e-05  1.3603777332461862e-05  1.3100833929862627e-05  1.2602890164171177e-05  1.2102375268091148e-05  1.1592378140409539e-05  1.1085860389915231e-05  1.0465482767108146e-05  9.5683491295403352e-06  8.3873889347229285e-06  7.0226662564652423e-06  5.7091014673294006e-06  4.5430754519530795e-06  3.4836878326512321e-06  2.5179545311214042e-06  1.6422338039483280e-06  8.5722914935824643e-07  1.6605438100662337e-07  -4.2652749660679817e-07  -9.1454042281247292e-07  -1.2912140966090784e-06  -1.5497019878667496e-06  -1.6844641739202133e-06  -1.6936122551361998e-06  -1.5826840476122171e-0