<?xml version="1.0"?>
<VTKFile type="UnstructuredGrid"  version="0.1"  >
<UnstructuredGrid>
<Piece  NumberOfPoints="1617" NumberOfCells="3072">
<Points>
<DataArray  type="Float64"  NumberOfComponents="3"  format="ascii">0 0 0  0.03125 0 0  0.0625 0 0  0.09375 0 0  0.125 0 0  0.15625 0 0  0.1875 0 0  0.21875 0 0  0.25 0 0  0.28125 0 0  0.3125 0 0  0.34375 0 0  0.375 0 0  0.40625 0 0  0.4375 0 0  0.46875 0 0  0.5 0 0  0.53125 0 0  0.5625 0 0  0.59375 0 0  0.625 0 0  0.65625 0 0  0.6875 0 0  0.71875 0 0  0.75 0 0  0.78125 0 0  0.8125 0 0  0.84375 0 0  0.875 0 0  0.90625 0 0  0.9375 0 0  0.96875 0 0  1 0 0  1.03125 0 0  1.0625 0 0  1.09375 0 0  1.125 0 0  1.15625 0 0  1.1875 0 0  1.21875 0 0  1.25 0 0  1.28125 0 0  1.3125 0 0  1.34375 0 0  1.375 0 0  1.40625 0 0  1.4375 0 0  1.46875 0 0  1.5 0 0  0 0.03125 0  0.03125 0.03125 0  0.0625 0.03125 0  0.09375 0.03125 0  0.125 0.03125 0  0.15625 0.03125 0  0.1875 0.03125 0  0.21875 0.03125 0  0.25 0.03125 0  0.28125 0.03125 0  0.3125 0.03125 0  0.34375 0.03125 0  0.375 0.03125 0  0.40625 0.03125 0  0.4375 0.03125 0  0.46875 0.03125 0  0.5 0.03125 0  0.53125 0.03125 0  0.5625 0.03125 0  0.59375 0.03125 0  0.625 0.03125 0  0.65625 0.03125 0  0.6875 0.03125 0  0.71875 0.03125 0  0.75 0.03125 0  0.78125 0.03125 0  0.8125 0.03125 0  0.84375 0.03125 0  0.875 0.03125 0  0.90625 0.03125 0  0.9375 0.03125 0  0.96875 0.03125 0  1 0.03125 0  1.03125 0.03125 0  1.0625 0.03125 0  1.09375 0.03125 0  1.125 0.03125 0  1.15625 0.03125 0  1.1875 0.03125 0  1.21875 0.03125 0  1.25 0.03125 0  1.28125 0.03125 0  1.3125 0.03125 0  1.34375 0.03125 0  1.375 0.03125 0  1.40625 0.03125 0  1.4375 0.03125 0  1.46875 0.03125 0  1.5 0.03125 0  0 0.0625 0  0.03125 0.0625 0  0.0625 0.0625 0  0.09375 0.0625 0  0.125 0.0625 0  0.15625 0.0625 0  0.1875 0.0625 0  0.21875 0.0625 0  0.25 0.0625 0  0.28125 0.0625 0  0.3125 0.0625 0  0.34375 0.0625 0  0.375 0.0625 0  0.40625 0.0625 0  0.4375 0.0625 0  0.46875 0.0625 0  0.5 0.0625 0  0.53125 0.0625 0  0.5625 0.0625 0  0.59375 0.0625 0  0.625 0.0625 0  0.65625 0.0625 0  0.6875 0.0625 0  0.71875 0.0625 0  0.75 0.0625 0  0.78125 0.0625 0  0.8125 0.0625 0  0.84375 0.0625 0  0.875 0.0625 0  0.90625 0.0625 0  0.9375 0.0625 0  0.96875 0.0625 0  1 0.0625 0  1.03125 0.0625 0  1.0625 0.0625 0  1.09375 0.0625 0  1.125 0.0625 0  1.15625 0.0625 0  1.1875 0.0625 0  1.21875 0.0625 0  1.25 0.0625 0  1.28125 0.0625 0  1.3125 0.0625 0  1.34375 0.0625 0  1.375 0.0625 0  1.40625 0.0625 0  1.4375 0.0625 0  1.46875 0.0625 0  1.5 0.0625 0  0 0.09375 0  0.03125 0.09375 0  0.0625 0.09375 0  0.09375 0.09375 0  0.125 0.09375 0  0.15625 0.09375 0  0.1875 0.09375 0  0.21875 0.09375 0  0.25 0.09375 0  0.28125 0.09375 0  0.3125 0.09375 0  0.34375 0.09375 0  0.375 0.09375 0  0.40625 0.09375 0  0.4375 0.09375 0  0.46875 0.09375 0  0.5 0.09375 0  0.53125 0.09375 0  0.5625 0.09375 0  0.59375 0.09375 0  0.625 0.09375 0  0.65625 0.09375 0  0.6875 0.09375 0  0.71875 0.09375 0  0.75 0.09375 0  0.78125 0.09375 0  0.8125 0.09375 0  0.84375 0.09375 0  0.875 0.09375 0  0.90625 0.09375 0  0.9375 0.09375 0  0.96875 0.09375 0  1 0.09375 0  1.03125 0.09375 0  1.0625 0.09375 0  1.09375 0.09375 0  1.125 0.09375 0  1.15625 0.09375 0  1.1875 0.09375 0  1.21875 0.09375 0  1.25 0.09375 0  1.28125 0.09375 0  1.3125 0.09375 0  1.34375 0.09375 0  1.375 0.09375 0  1.40625 0.09375 0  1.4375 0.09375 0  1.46875 0.09375 0  1.5 0.09375 0  0 0.125 0  0.03125 0.125 0  0.0625 0.125 0  0.09375 0.125 0  0.125 0.125 0  0.15625 0.125 0  0.1875 0.125 0  0.21875 0.125 0  0.25 0.125 0  0.28125 0.125 0  0.3125 0.125 0  0.34375 0.125 0  0.375 0.125 0  0.40625 0.125 0  0.4375 0.125 0  0.46875 0.125 0  0.5 0.125 0  0.53125 0.125 0  0.5625 0.125 0  0.59375 0.125 0  0.625 0.125 0  0.65625 0.125 0  0.6875 0.125 0  0.71875 0.125 0  0.75 0.125 0  0.78125 0.125 0  0.8125 0.125 0  0.84375 0.125 0  0.875 0.125 0  0.90625 0.125 0  0.9375 0.125 0  0.96875 0.125 0  1 0.125 0  1.03125 0.125 0  1.0625 0.125 0  1.09375 0.125 0  1.125 0.125 0  1.15625 0.125 0  1.1875 0.125 0  1.21875 0.125 0  1.25 0.125 0  1.28125 0.125 0  1.3125 0.125 0  1.34375 0.125 0  1.375 0.125 0  1.40625 0.125 0  1.4375 0.125 0  1.46875 0.125 0  1.5 0.125 0  0 0.15625 0  0.03125 0.15625 0  0.0625 0.15625 0  0.09375 0.15625 0  0.125 0.15625 0  0.15625 0.15625 0  0.1875 0.15625 0  0.21875 0.15625 0  0.25 0.15625 0  0.28125 0.15625 0  0.3125 0.15625 0  0.34375 0.15625 0  0.375 0.15625 0  0.40625 0.15625 0  0.4375 0.15625 0  0.46875 0.15625 0  0.5 0.15625 0  0.53125 0.15625 0  0.5625 0.15625 0  0.59375 0.15625 0  0.625 0.15625 0  0.65625 0.15625 0  0.6875 0.15625 0  0.71875 0.15625 0  0.75 0.15625 0  0.78125 0.15625 0  0.8125 0.15625 0  0.84375 0.15625 0  0.875 0.15625 0  0.90625 0.15625 0  0.9375 0.15625 0  0.96875 0.15625 0  1 0.15625 0  1.03125 0.15625 0  1.0625 0.15625 0  1.09375 0.15625 0  1.125 0.15625 0  1.15625 0.15625 0  1.1875 0.15625 0  1.21875 0.15625 0  1.25 0.15625 0  1.28125 0.15625 0  1.3125 0.15625 0  1.34375 0.15625 0  1.375 0.15625 0  1.40625 0.15625 0  1.4375 0.15625 0  1.46875 0.15625 0  1.5 0.15625 0  0 0.1875 0  0.03125 0.1875 0  0.0625 0.1875 0  0.09375 0.1875 0  0.125 0.1875 0  0.15625 0.1875 0  0.1875 0.1875 0  0.21875 0.1875 0  0.25 0.1875 0  0.28125 0.1875 0  0.3125 0.1875 0  0.34375 0.1875 0  0.375 0.1875 0  0.40625 0.1875 0  0.4375 0.1875 0  0.46875 0.1875 0  0.5 0.1875 0  0.53125 0.1875 0  0.5625 0.1875 0  0.59375 0.1875 0  0.625 0.1875 0  0.65625 0.1875 0  0.6875 0.1875 0  0.71875 0.1875 0  0.75 0.1875 0  0.78125 0.1875 0  0.8125 0.1875 0  0.84375 0.1875 0  0.875 0.1875 0  0.90625 0.1875 0  0.9375 0.1875 0  0.96875 0.1875 0  1 0.1875 0  1.03125 0.1875 0  1.0625 0.1875 0  1.09375 0.1875 0  1.125 0.1875 0  1.15625 0.1875 0  1.1875 0.1875 0  1.21875 0.1875 0  1.25 0.1875 0  1.28125 0.1875 0  1.3125 0.1875 0  1.34375 0.1875 0  1.375 0.1875 0  1.40625 0.1875 0  1.4375 0.1875 0  1.46875 0.1875 0  1.5 0.1875 0  0 0.21875 0  0.03125 0.21875 0  0.0625 0.21875 0  0.09375 0.21875 0  0.125 0.21875 0  0.15625 0.21875 0  0.1875 0.21875 0  0.21875 0.21875 0  0.25 0.21875 0  0.28125 0.21875 0  0.3125 0.21875 0  0.34375 0.21875 0  0.375 0.21875 0  0.40625 0.21875 0  0.4375 0.21875 0  0.46875 0.21875 0  0.5 0.21875 0  0.53125 0.21875 0  0.5625 0.21875 0  0.59375 0.21875 0  0.625 0.21875 0  0.65625 0.21875 0  0.6875 0.21875 0  0.71875 0.21875 0  0.75 0.21875 0  0.78125 0.21875 0  0.8125 0.21875 0  0.84375 0.21875 0  0.875 0.21875 0  0.90625 0.21875 0  0.9375 0.21875 0  0.96875 0.21875 0  1 0.21875 0  1.03125 0.21875 0  1.0625 0.21875 0  1.09375 0.21875 0  1.125 0.21875 0  1.15625 0.21875 0  1.1875 0.21875 0  1.21875 0.21875 0  1.25 0.21875 0  1.28125 0.21875 0  1.3125 0.21875 0  1.34375 0.21875 0  1.375 0.21875 0  1.40625 0.21875 0  1.4375 0.21875 0  1.46875 0.21875 0  1.5 0.21875 0  0 0.25 0  0.03125 0.25 0  0.0625 0.25 0  0.09375 0.25 0  0.125 0.25 0  0.15625 0.25 0  0.1875 0.25 0  0.21875 0.25 0  0.25 0.25 0  0.28125 0.25 0  0.3125 0.25 0  0.34375 0.25 0  0.375 0.25 0  0.40625 0.25 0  0.4375 0.25 0  0.46875 0.25 0  0.5 0.25 0  0.53125 0.25 0  0.5625 0.25 0  0.59375 0.25 0  0.625 0.25 0  0.65625 0.25 0  0.6875 0.25 0  0.71875 0.25 0  0.75 0.25 0  0.78125 0.25 0  0.8125 0.25 0  0.84375 0.25 0  0.875 0.25 0  0.90625 0.25 0  0.9375 0.25 0  0.96875 0.25 0  1 0.25 0  1.03125 0.25 0  1.0625 0.25 0  1.09375 0.25 0  1.125 0.25 0  1.15625 0.25 0  1.1875 0.25 0  1.21875 0.25 0  1.25 0.25 0  1.28125 0.25 0  1.3125 0.25 0  1.34375 0.25 0  1.375 0.25 0  1.40625 0.25 0  1.4375 0.25 0  1.46875 0.25 0  1.5 0.25 0  0 0.28125 0  0.03125 0.28125 0  0.0625 0.28125 0  0.09375 0.28125 0  0.125 0.28125 0  0.15625 0.28125 0  0.1875 0.28125 0  0.21875 0.28125 0  0.25 0.28125 0  0.28125 0.28125 0  0.3125 0.28125 0  0.34375 0.28125 0  0.375 0.28125 0  0.40625 0.28125 0  0.4375 0.28125 0  0.46875 0.28125 0  0.5 0.28125 0  0.53125 0.28125 0  0.5625 0.28125 0  0.59375 0.28125 0  0.625 0.28125 0  0.65625 0.28125 0  0.6875 0.28125 0  0.71875 0.28125 0  0.75 0.28125 0  0.78125 0.28125 0  0.8125 0.28125 0  0.84375 0.28125 0  0.875 0.28125 0  0.90625 0.28125 0  0.9375 0.28125 0  0.96875 0.28125 0  1 0.28125 0  1.03125 0.28125 0  1.0625 0.28125 0  1.09375 0.28125 0  1.125 0.28125 0  1.15625 0.28125 0  1.1875 0.28125 0  1.21875 0.28125 0  1.25 0.28125 0  1.28125 0.28125 0  1.3125 0.28125 0  1.34375 0.28125 0  1.375 0.28125 0  1.40625 0.28125 0  1.4375 0.28125 0  1.46875 0.28125 0  1.5 0.28125 0  0 0.3125 0  0.03125 0.3125 0  0.0625 0.3125 0  0.09375 0.3125 0  0.125 0.3125 0  0.15625 0.3125 0  0.1875 0.3125 0  0.21875 0.3125 0  0.25 0.3125 0  0.28125 0.3125 0  0.3125 0.3125 0  0.34375 0.3125 0  0.375 0.3125 0  0.40625 0.3125 0  0.4375 0.3125 0  0.46875 0.3125 0  0.5 0.3125 0  0.53125 0.3125 0  0.5625 0.3125 0  0.59375 0.3125 0  0.625 0.3125 0  0.65625 0.3125 0  0.6875 0.3125 0  0.71875 0.3125 0  0.75 0.3125 0  0.78125 0.3125 0  0.8125 0.3125 0  0.84375 0.3125 0  0.875 0.3125 0  0.90625 0.3125 0  0.9375 0.3125 0  0.96875 0.3125 0  1 0.3125 0  1.03125 0.3125 0  1.0625 0.3125 0  1.09375 0.3125 0  1.125 0.3125 0  1.15625 0.3125 0  1.1875 0.3125 0  1.21875 0.3125 0  1.25 0.3125 0  1.28125 0.3125 0  1.3125 0.3125 0  1.34375 0.3125 0  1.375 0.3125 0  1.40625 0.3125 0  1.4375 0.3125 0  1.46875 0.3125 0  1.5 0.3125 0  0 0.34375 0  0.03125 0.34375 0  0.0625 0.34375 0  0.09375 0.34375 0  0.125 0.34375 0  0.15625 0.34375 0  0.1875 0.34375 0  0.21875 0.34375 0  0.25 0.34375 0  0.28125 0.34375 0  0.3125 0.34375 0  0.34375 0.34375 0  0.375 0.34375 0  0.40625 0.34375 0  0.4375 0.34375 0  0.46875 0.34375 0  0.5 0.34375 0  0.53125 0.34375 0  0.5625 0.34375 0  0.59375 0.34375 0  0.625 0.34375 0  0.65625 0.34375 0  0.6875 0.34375 0  0.71875 0.34375 0  0.75 0.34375 0  0.78125 0.34375 0  0.8125 0.34375 0  0.84375 0.34375 0  0.875 0.34375 0  0.90625 0.34375 0  0.9375 0.34375 0  0.96875 0.34375 0  1 0.34375 0  1.03125 0.34375 0  1.0625 0.34375 0  1.09375 0.34375 0  1.125 0.34375 0  1.15625 0.34375 0  1.1875 0.34375 0  1.21875 0.34375 0  1.25 0.34375 0  1.28125 0.34375 0  1.3125 0.34375 0  1.34375 0.34375 0  1.375 0.34375 0  1
[...]
<PointData  Scalars="f_33"> 
<DataArray  type="Float64"  Name="f_33"  format="ascii">2.0867047321040477e-05  2.1545345031890680e-05  2.1934571479699805e-05  2.1902489744141239e-05  2.1579591151960155e-05  2.1100129734497225e-05  2.0519014430588497e-05  1.9877291411771053e-05  1.9204878425677129e-05  1.8521918342691196e-05  1.7840937442373967e-05  1.7168890933362999e-05  1.6508926256013863e-05  1.5861762506570443e-05  1.5226670466276366e-05  1.4602104874460421e-05  1.3986074820366741e-05  1.3376343105835022e-05  1.2770533852983350e-05  1.2166210165229971e-05  1.1560965924413890e-05  1.0952558952734534e-05  1.0339095850696087e-05  9.7192613586151289e-06  9.0925685974100380e-06  8.4595945486281728e-06  7.8221615884222530e-06  7.1834328096226603e-06  6.5479046746554132e-06  5.9213003011864511e-06  5.3103841943780309e-06  4.7227294328266302e-06  4.1664688172091109e-06  3.6500521021338025e-06  3.1820133318514591e-06  2.7707269247116333e-06  2.4240987472768849e-06  2.1491104216506059e-06  1.9510951679816517e-06  1.8326743811907175e-06  1.7921623891012935e-06  1.8218484586686507e-06  1.9051667554946052e-06  2.0156026633113082e-06  2.1083416439923365e-06  2.1740474772364366e-06  1.9027486983358484e-06  1.2887399634717578e-06  7.5681668418179282e-07  2.0548626362535888e-05  2.1362414170118628e-05  2.1870433751279935e-05  2.1874630206264846e-05  2.1527499596719293e-05  2.1037047056889122e-05  2.0449305858085075e-05  1.9803601521478372e-05  1.9130069702345876e-05  1.8448604144350039e-05  1.7771214334877405e-05  1.7104243460864876e-05  1.6450254524798014e-05  1.5809481086394172e-05  1.5180831274069933e-05  1.4562510505056260e-05  1.3952365136605641e-05  1.3348050303842021e-05  1.2747108583281775e-05  1.2147024846881840e-05  1.1545303015000358e-05  1.0939592878978681e-05  1.0327877754125593e-05  9.7087151591527018e-06  9.0815044020209411e-06  8.4467410764761218e-06  7.8062140688241865e-06  7.1631085137453415e-06  6.5219964882369282e-06  5.8887201284584602e-06  5.2701918429158432e-06  4.6741475724602430e-06  4.1088892186061938e-06  3.5830417766438164e-06  3.1053307745206023e-06  2.6843582334529929e-06  2.3283191551316767e-06  2.0445696757398588e-06  1.8389086735379996e-06  1.7144916337880056e-06  1.6701446838036402e-06  1.6985452121298138e-06  1.7830258938605079e-06  1.8970428217766818e-06  1.9913116877722294e-06  2.0673254435586366e-06  1.7897941509801581e-06  1.1183210678480505e-06  3.8679915932785794e-07  2.0300177993205341e-05  2.1212238593098769e-05  2.1847700052569010e-05  2.1935433346987488e-05  2.1566812084716225e-05  2.1056875061114101e-05  2.0445569001103435e-05  1.9777450157268114e-05  1.9086075358120074e-05  1.8392209193690215e-05  1.7707573113962549e-05  1.7037667114145182e-05  1.6384026002592689e-05  1.5745906110469594e-05  1.5121406491818858e-05  1.4508120398310348e-05  1.3903453757699523e-05  1.3304742138085054e-05  1.2709272260717379e-05  1.2114285591514911e-05  1.1517017719146979e-05  1.0914807668418928e-05  1.0305291839718601e-05  9.6866747325564229e-06  9.0580441574172386e-06  8.4196785163697735e-06  7.7732863979645125e-06  7.1221293817897944e-06  6.4710051942024861e-06  5.8261006876856686e-06  5.1947510015570726e-06  4.5851547063688070e-06  4.0060927138467812e-06  3.4666833573140068e-06  2.9761802158476939e-06  2.5437854763906079e-06  2.1784073043377845e-06  1.8882514317015964e-06  1.6800736793020572e-06  1.5579870683878804e-06  1.5215204514027840e-06  1.5634810912887769e-06  1.6660124828944998e-06  1.7997850384596647e-06  1.9090811713710551e-06  1.9890386411374809e-06  1.6442200738580322e-06  8.6588309441104256e-07  -4.4459854095589801e-08  2.0152019134109159e-05  2.1107969375339964e-05  2.1839880460814356e-05  2.2013242081494913e-05  2.1645086737161314e-05  2.1124637963391522e-05  2.0488149620258773e-05  1.9791919419524863e-05  1.9075122521218143e-05  1.8360930199674900e-05  1.7661756037323084e-05  1.6982761295987765e-05  1.6324615323610737e-05  1.5685553866231555e-05  1.5062718004794835e-05  1.4452902557773670e-05  1.3852887907080541e-05  1.3259520379570512e-05  1.2669673357424798e-05  1.2080186176347349e-05  1.1487850380952210e-05  1.0889491646886038e-05  1.0282173325229031e-05  9.6635176646439039e-06  9.0321037918619062e-06  8.3878678877456074e-06  7.7324167170836913e-06  7.0691815886502373e-06  6.4033820443408580e-06  5.7418194164364354e-06  5.0925593850379561e-06  4.4645778518318446e-06  3.8674357150100065e-06  3.3110221508467079e-06  2.8053693381779589e-06  2.3604980123225236e-06  1.9861997605427809e-06  1.6916154470009062e-06  1.4843980110337630e-06  1.3693160293829844e-06  1.3459560288919651e-06  1.4060762389236856e-06  1.5289473311673989e-06  1.6797719330596236e-06  1.7935435277328596e-06  1.8530602475798377e-06  1.4363762646136345e-06  5.5558182916159892e-07  -4.4501701730634659e-07  2.0107760420462034e-05  2.1088938640125412e-05  2.1878971114716205e-05  2.2107620425695350e-05  2.1751132481590038e-05  2.1226738161018187e-05  2.0568033034445869e-05  1.9844019107158142e-05  1.9099368737714189e-05  1.8360730003848695e-05  1.7642173660479495e-05  1.6949224435891753e-05  1.6282127387972239e-05  1.5638329865421607e-05  1.5014094516614689e-05  1.4405400921536149e-05  1.3808335121098422e-05  1.3219161055868396e-05  1.2634231602070385e-05  1.2049858774005981e-05  1.1462234999328976e-05  1.0867477772111119e-05  1.0261846392400871e-05  9.6421392957925453e-06  9.0062214855013378e-06  8.3535715867788265e-06  7.6857089467111392e-06  7.0063866263463864e-06  6.3215089675775930e-06  5.6388169407061021e-06  4.9674419619215195e-06  4.3174417759903077e-06  3.6994071860446269e-06  3.1241830833042604e-06  2.6026947689831454e-06  2.1458163215620649e-06  1.7641574230265445e-06  1.4675945399126779e-06  1.2643003954953472e-06  1.1591015624483015e-06  1.1508074181854838e-06  1.2290997012788876e-06  1.3693374150593970e-06  1.5307151651261963e-06  1.6399991429853907e-06  1.6721891907676869e-06  1.1997156983601141e-06  2.5634570626165777e-07  -7.8431067634322752e-07  2.0146069391676345e-05  2.1140968658175993e-05  2.1962249587314751e-05  2.2223063770373219e-05  2.1878517676487089e-05  2.1351444895765067e-05  2.0674395444448067e-05  1.9925554903615512e-05  1.9153927426873455e-05  1.8390000713654089e-05  1.7650001146141798e-05  1.6940352443760236e-05  1.6261327617907865e-05  1.5609910944883001e-05  1.4981684462957677e-05  1.4371910210457497e-05  1.3776010014362159e-05  1.3189654433377859e-05  1.2608636871457686e-05  1.2028672272763460e-05  1.1445238039258551e-05  1.0853564335008299e-05  1.0248862951414273e-05  9.6268329447050126e-06  8.9843856645772432e-06  8.3204210356609679e-06  7.6364260949255235e-06  6.9367097420712084e-06  6.2282206461640750e-06  5.5200416363800954e-06  4.8227372438850598e-06  4.1477289885850726e-06  3.5068134029946413e-06  2.9118602314301456e-06  2.3746562424562752e-06  1.9067981416398377e-06  1.5194771537604425e-06  1.2229507408783380e-06  1.0254320667219944e-06  9.3121956540492517e-07  9.3772441998599812e-07  1.0320591125336542e-06  1.1856328511809677e-06  1.3525433057606509e-06  1.4540961555599920e-06  1.4623583600847985e-06  9.5169806120398945e-07  -2.6771790678329239e-08  -1.0847263578990278e-06  2.0243621784265717e-05  2.1245935163368730e-05  2.2083170566946070e-05  2.2361490862085585e-05  2.2023869969630534e-05  2.1492691985063587e-05  2.0800162974117018e-05  2.0029600870549166e-05  1.9233272443283703e-05  1.8445178219287889e-05  1.7683703482684984e-05  1.6956434712745664e-05  1.6263998345537316e-05  1.5603206395255995e-05  1.4969178231172312e-05  1.4356603364721275e-05  1.3760327830240258e-05  1.3175480525531219e-05  1.2597321617632606e-05  1.2020963115256194e-05  1.1441103269964860e-05  1.0851927279278605e-05  1.0247331672678571e-05  9.6215752969370400e-06  8.9703056886456684e-06  8.2916997247086108e-06  7.5873257559271365e-06  6.8624109359845065e-06  6.1254544578182570e-06  5.3873905894741597e-06  4.6606183188165199e-06  3.9581624941993790e-06  3.2931006759786084e-06  2.6782632815634348e-06  2.1261244592841869e-06  1.6487414303527872e-06  1.2575495355330641e-06  9.6278545057367325e-07  7.7226005547676842e-07  6.8931419298792093e-07  7.0965176925837217e-07  8.1780212993733388e-07  9.8176386222941978e-07  1.1518968424354665e-06  1.2464023070205469e-06  1.2371073380554007e-06  7.0213836859207420e-07  -2.9464321532743696e-07  -1.3591381818363499e-06  2.0380541126292417e-05  2.1386889834561600e-05  2.2231839396030799e-05  2.2518670038131841e-05  2.2182827008223946e-05  2.1645856797007210e-05  2.0939591425344934e-05  2.0149967977225728e-05  1.9331723803372098e-05  1.8521659396602277e-05  1.7740052976109793e-05  1.6995690596427845e-05  1.6289715518184266e-05  1.5618963528365708e-05  1.4978267779579345e-05  1.4361883472337981e-05  1.3764185163301762e-05  1.3179845652620880e-05  1.2603669954946565e-05  1.2030227999510129e-05  1.1453440885862110e-05  1.0866322911295519e-05  1.0261147964569473e-05  9.6302786019385681e-06  8.9676554314237320e-06  8.2705376080706340e-06  7.5407857327821411e-06  6.7851220336181319e-06  6.0143307402971598e-06  5.2418514320253303e-06  4.4823401898110021e-06  3.7505815734515737e-06  3.0608672639801960e-06  2.4267678464368342e-06  1.8611328660192440e-06  1.3761191630596434e-06  9.8302330972555266e-07  6.9167973422155338e-07  5.0915193029505042e-07  4.3757465098328836e-07  4.7088755887008917e-07  5.9129511065026381e-07  7.6408857162479793e-07  9.3707327569342313e-07  1.0268486907401589e-06  1.0060397687154782e-06  4.5631906482595188e-07  -5.4938299081047046e-07  -1.6155138807812341e-06  2.0540686368271575e-05  2.1549337044070997e-05  2.2397668773078778e-05  2.2687662472077895e-05  2.2350002777467310e-05  2.1806061010737438e-05  2.1087230618656133e-05  2.0280908488295703e-05  1.9443659313093267e-05  1.8614352674844144e-05  1.7814825512217994e-05  1.7054954194321612e-05  1.6336428106138160e-05  1.5656203054996354e-05  1.5008936558942628e-05  1.4388547250062073e-05  1.3789022760993351e-05  1.3204666168092050e-05  1.2629935611309887e-05  1.2058984898571596e-05  1.1485047768119009e-05  1.0899898085448526e-05  1.0293828065302726e-05  9.6566542456951127e-06  8.9799231635266305e-06  8.2596866674321027e-06  7.4984895847283371e-06  6.7055008581322184e-06  5.8948781349864365e-06  5.0833911151223399e-06  4.2883406218406226e-06  3.5262587803757595e-06  2.8123734478076979e-06  2.1605867181023686e-06  1.5836787991790073e-06  1.0934779910115257e-06  7.0075717074715547e-07  4.1462643027531765e-07  2.4117057070495343e-07  1.8122255046643893e-07  2.2705909138712779e-07  3.5891857778934578e-07  5.4003051289557350e-07  7.1649311253763409e-07  8.0412054079237225e-07  7.7654292129321004e-07  2.1828241051374372e-07  -7.9118814045016234e-07  -1.8567318109669960e-06  2.0710800542182935e-05  2.1720877580847207e-05  2.2570374049233735e-05  2.2860563230094103e-05  2.2519078429774223e-05  2.1967690082495367e-05  2.1237437928523018e-05  2.0416692779077000e-05  1.9563345505361099e-05  1.8717774218870475e-05  1.7903059148270528e-05  1.7129991355015451e-05  1.6400756894424251e-05  1.5712454075161065e-05  1.5059613088264126e-05  1.4435861254067233e-05  1.3834839912569215e-05  1.3250534807006278e-05  1.2677164274123121e-05  1.2108645315419777e-05  1.1537734310423605e-05  1.0955006937598685e-05  1.0348374845539421e-05  9.7041449479303578e-06  9.0103293632966088e-06  8.2613119150327879e-06  7.4610774708858925e-06  6.6228657182292699e-06  5.7658226957886264e-06  4.9110110394397355e-06  4.0785766946756229e-06  3.2864635375907665e-06  2.5502518465188907e-06  1.8835516576378738e-06  1.2985174882160428e-06  8.0619718335995730e-07  4.1649739794991943e-07  1.3757034655493275e-07  -2.5593735748436673e-08  -7.3440834725281817e-08  -1.5168535925384530e-08  1.2786312356385314e-07  3.1734332821230284e-07  4.9822264223233216e-07  5.8593455068709697e-07  5.5500278452195580e-07  -7.8649823427728318e-09  -1.0183431938088880e-06  -2.0823602236124421e-06  2.0879775331215667e-05  2.1890845653976002e-05  2.2740447408624623e-05  2.3029364023814865e-05  2.2683248200624207e-05  2.2124612118051051e-05  2.1384288332105046e-05  2.0551400770088814e-05  1.9684819132608148e-05  1.8826046282465611e-05  1.7999137710488041e-05  1.7215621319951431e-05  1.6478103974843916e-05  1.5783811867949111e-05  1.5127156902066066e-05  1.4501478109300652e-05  1.3900059494847785e-05  1.3316556357899227e-05  1.2745008463943113e-05  1.2179286791410444e-05  1.1612035711008284e-05  1.1032888385621573e-05  1.0427030728754739e-05  9.7758054055639618e-06  9.0616850812906742e-06  8.2766336339416482e-06  7.4276024570769645e-06  6.5347344995198319e-06  5.6244801599596907e-06  4.7230836345333727e-06  3.8532232946950225e-06  3.0333642396687402e-06  2.2784630372576699e-06  1.6010171752038018e-06  1.0119535988068432e-06  5.2113687583232084e-07  1.3736412261527100e-07  -1.3228462988756901e-07  -2.8391229062247461e-07  -3.1912640475093590e-07  -2.4836240519774145e-07  -9.4235407323015264e-08  1.0381013972560760e-07  2.8994368903888300e-07  3.7941299140392749e-07  3.4744694592663434e-07  -2.1757171617650784e-07  -1.2276146531075219e-06  -2.2897864166567177e-06  2.1038174248007073e-05  2.2050026796653859e-05  2.2899309188711355e-05  2.3186405156446686e-05  2.2835671827306007e-05  2.2270514372657052e-05  2.1521685866495406e-05  2.0678940048588868e-05  1.9801897835285670e-05  1.8932926242460471e-05  1.8096845836292196e-05  1.7305776609347642e-05  1.6562679455079495e-05  1.5864892893507591e-05  1.5206715811507849e-05  1.4581192648979666e-05  1.3981205751470320e-05  1.3399993238123033e-05  1.2831377681474450e-05  1.2269284092795110e-05  1.1706761703158046e-05  1.1133100026902441e-05  1.0530799564172141e-05  9.8740378013066107e-06  9.1360669605648584e-06  8.3052664983375233e-06  7.3947297653260196e-06  6.4364199702027798e-06  5.4670868704224430e-06  4.5183469688723649e-06  3.6140264789908102e-06  2.7714313628081079e-06  2.0035447530772939e-06  1.3208637013972143e-06  7.3258139976136865e-07  2.4713458110846734e-07  -1.2786632440451107e-07  -3.8637951381395285e-07  -5.2548216534344124e-07  -5.4774896673517528e-07  -4.6458990006444562e-07  -2.9956232404759455e-07  -9.2923334451955325e-08  9.8966791737166578e-08  1.9127026622769400e-07  1.5974723444118596e-07  -4.0591689596154734e-07  -1.4148221213428896e-06  -2.4751411128760594e-06  2.1177979453089079e-05  2.2190508258501105e-05  2.3039391995517302e-05  2.3324670239232223e-05  2.2969851618121342e-05  2.2399245142420134e-05  2.1643607470769704e-05  2.0793229733707835e-05  1.9908326181019511e-05  1.9031941977122770e-05  1.8189505226145179e-05  1.7393622720507027e-05  1.6647567741847958e-05  1.5948800258827192e-05  1.5291543748878402e-05  1.4668581051094276e-05  1.4072371962140750e-05  1.3495630823826818e-05  1.2931793972530102e-05  1.2374695897370772e-05  1.1818294226149366e-05  1.1252504190702545e-05  1.0658465837548154e-05  9.9998278736566997e-06  9.2338819549295943e-06  8.3439888239728655e-06  7.3558135933417723e-06  6.3212613314504669e-06  5.2903280745738334e-06  4.2981647609029107e-06  3.3666221564579657e-06  2.5093871100154491e-06  1.7360396106837363e-06  1.0544234947862197e-06  4.7180118851980374e-07  -4.7847436448171391e-09  -3.6877036181766221e-07  -6.1496170113122735e-07  -7.4118883778720600e-07  -7.5074518735647718e-07  -6.5574346179750982e-07  -4.8040293106978813e-07  -2.6553525159656648e-07  -6.7847468999220458e-08  2.7795899073536459e-08  -2.4521797775328767e-09  -5.6788546977608781e-07  -1.5753889015921375e-06  -2.6340160111002813e-06  2.1292505574770609e-05  2.2305647431568976e-05  2.3154236995695884e-05  2.3438020570454480e-05  2.3079950884551251e-05  2.2505150914398100e-05  2.1744420129477737e-05  2.0888495291803567e-05  1.9998056366086102e-05  1.9116679078007759e-05  1.8270274580946870e-05  1.7471856368920658e-05  1.6724987942459961e-05  1.6027286150592995e-05  1.5372982968213310e-05  1.4754708938984613e-05  1.4164585544773987e-05  1.3594808485287780e-05  1.3038220142094308e-05  1.2488154729503481e-05  1.1939479044611347e-05  1.1383650398963398e-05  1.0804630082129819e-05  1.0150325510833094e-05  9.3512696601772673e-06  8.3849868697968597e-06  7.3009851171093852e-06  6.1831529060903246e-06  5.0954606805986942e-06  4.0707270069473595e-06  3.1238412945290573e-06  2.2623585879325167e-06  1.4916491514903130e-06  8.1691448599774435e-07  2.4379187816186341e-07  -2.2170445511970237e-07  -5.7371324634340843e-07  -8.0758143942424388e-07  -9.2161275697381334e-07  -9.1955503930942083e-07  -8.1396827706719954e-07  -6.2949342068439068e-07  -4.0729130736154184e-07  -2.0427954357205377e-07  -1.0531320147688929e-07  -1.3395601930074215e-07  -6.9871624450424700e-07  -1.7048338750748992e-06  -2.7620326289389540e-06  2.1376423087745756e-05  2.2390125567064925e-05  2.3238618774737514e-05  2.3521408451584997e-05  2.3161079034051768e-05  2.2583405520986725e-05  2.1819233516374879e-05  2.0959640559992663e-05  2.0065649873360341e-05  1.9181231034522695e-05  1.8332661324539022e-05  1.7533280362818881e-05  1.6786912726427510e-05  1.6091362798790303e-05  1.5440967324800306e-05  1.4828366027127449e-05  1.4245557509070305e-05  1.3684457166652267e-05  1.3137370910198293e-05  1.2596895143377407e-05  1.2057754957249222e-05  1.1512648693122494e-05  1.0955632161809261e-05  1.0311709651248823e-05  9.4742310317827799e-06  8.4159300628343141e-06  7.2222815435103779e-06  6.0246190777569387e-06  4.8965070694676543e-06  3.8569764116247729e-06  2.9089440574399661e-06  2.0530536990346383e-06  1.2911503508118499e-06  6.2671042853395390e-07  6.4520096759101639e-08  -3.8985526181762448e-07  -7.3083173936217593e-07  -9.5397408659567498e-07  -1.0577969612218089e-06  -1.0462729202014427e-06  -9.3219959897520658e-07  -7.4045103486536018e-07  -5.1238255824684827e-07  -3.0502506239136576e-07  -2.0320707299395954e-07  -2.3030313639171344e-07  -7.9425516244170899e-07  -1.7991922989276064e-06  -2.8552948997836451e-06  2.1425837250938117e-05  2.2440045009616421e-05  2.3288684158732479e-05  2.3571073855760088e-05  2.3209546452974261e-05  2.2630317013011794e-05  2.1864254052949094e-05  2.1002654185078510e-05  2.0106753787132214e-05  1.9220772891593698e-05  1.8371225403993651e-05  1.7571672106583308e-05  1.6826130485957683e-05  1.6132569639873239e-05  1.5485464076458311e-05  1.4877566029845330e-05  1.4300954110060363e-05  1.3747588787586648e-05  1.3209644729060197e-05  1.2679409185824752e-05  1.2150385918350344e-05  1.1615534544925433e-05  1.1082804149293808e-05  1.0446717988214596e-05  9.5726214866851936e-06  8.4306025937801781e-06  7.1312210110750078e-06  5.8735541107048599e-06  4.7309667436234004e-06  3.6947712385976493e-06  2.7555305606519748e-06  1.9096963079704651e-06  1.1577394303364381e-06  5.0275750312624791e-07  -5.0517062152088195e-08  -4.9649065070936214e-07  -8.2955415335165302e-07  -1.0452773504692691e-06  -1.1422155717832502e-06  -1.1244139835884967e-06  -1.0047649772667591e-06  -8.0824481420120874e-07  -5.7629654309204935e-07  -3.6600122861935491e-07  -2.6216216100431231e-07  -2.8805445154460310e-07  -8.5127286248274338e-07  -1.8553599179082601e-06  -2.9107433080186727e-06  2.1438377287106627e-05  2.2453030177115991e-05  2.3302078680082711e-05  2.3584708792633588e-05  2.3223073021768317e-05  2.2643584221167313e-05  2.1877094378571033e-05  2.1014984413667511e-05  2.0118564398298448e-05  1.9232150305232536e-05  1.8382345491092076e-05  1.7582796933664902e-05  1.6837598769646686e-05  1.6144788750093546e-05  1.5498904266768540e-05  1.4892759136297923e-05  1.4318497526418722e-05  1.3768154635635415e-05  1.3233925335913218e-05  1.2708186750551466e-05  1.2183778335637730e-05  1.1654591514869333e-05  1.1134612112288257e-05  1.0507690676398052e-05  9.6118795604579651e-06  8.4401893555870342e-06  7.0918614206832422e-06  5.8003856909838931e-06  4.6609361223630604e-06  3.6316591164128767e-06  2.6988172631364485e-06  1.8583867167875038e-06  1.1110457300854526e-06  4.6008707147981987e-07  -8.9602352598581260e-08  -5.3232267336012236e-07  -8.6239985164341976e-07  -1.0753699118520234e-06  -1.1697769338797787e-06  -1.1496705940885480e-06  -1.0279576736728959e-06  -8.29633754993090