<?xml version="1.0"?>
<VTKFile type="UnstructuredGrid"  version="0.1"  >
<UnstructuredGrid>
<Piece  NumberOfPoints="1617" NumberOfCells="3072">
<Points>
<DataArray  type="Float64"  NumberOfComponents="3"  format="ascii">0 0 0  0.03125 0 0  0.0625 0 0  0.09375 0 0  0.125 0 0  0.15625 0 0  0.1875 0 0  0.21875 0 0  0.25 0 0  0.28125 0 0  0.3125 0 0  0.34375 0 0  0.375 0 0  0.40625 0 0  0.4375 0 0  0.46875 0 0  0.5 0 0  0.53125 0 0  0.5625 0 0  0.59375 0 0  0.625 0 0  0.65625 0 0  0.6875 0 0  0.71875 0 0  0.75 0 0  0.78125 0 0  0.8125 0 0  0.84375 0 0  0.875 0 0  0.90625 0 0  0.9375 0 0  0.96875 0 0  1 0 0  1.03125 0 0  1.0625 0 0  1.09375 0 0  1.125 0 0  1.15625 0 0  1.1875 0 0  1.21875 0 0  1.25 0 0  1.28125 0 0  1.3125 0 0  1.34375 0 0  1.375 0 0  1.40625 0 0  1.4375 0 0  1.46875 0 0  1.5 0 0  0 0.03125 0  0.03125 0.03125 0  0.0625 0.03125 0  0.09375 0.03125 0  0.125 0.03125 0  0.15625 0.03125 0  0.1875 0.03125 0  0.21875 0.03125 0  0.25 0.03125 0  0.28125 0.03125 0  0.3125 0.03125 0  0.34375 0.03125 0  0.375 0.03125 0  0.40625 0.03125 0  0.4375 0.03125 0  0.46875 0.03125 0  0.5 0.03125 0  0.53125 0.03125 0  0.5625 0.03125 0  0.59375 0.03125 0  0.625 0.03125 0  0.65625 0.03125 0  0.6875 0.03125 0  0.71875 0.03125 0  0.75 0.03125 0  0.78125 0.03125 0  0.8125 0.03125 0  0.84375 0.03125 0  0.875 0.03125 0  0.90625 0.03125 0  0.9375 0.03125 0  0.96875 0.03125 0  1 0.03125 0  1.03125 0.03125 0  1.0625 0.03125 0  1.09375 0.03125 0  1.125 0.03125 0  1.15625 0.03125 0  1.1875 0.03125 0  1.21875 0.03125 0  1.25 0.03125 0  1.28125 0.03125 0  1.3125 0.03125 0  1.34375 0.03125 0  1.375 0.03125 0  1.40625 0.03125 0  1.4375 0.03125 0  1.46875 0.03125 0  1.5 0.03125 0  0 0.0625 0  0.03125 0.0625 0  0.0625 0.0625 0  0.09375 0.0625 0  0.125 0.0625 0  0.15625 0.0625 0  0.1875 0.0625 0  0.21875 0.0625 0  0.25 0.0625 0  0.28125 0.0625 0  0.3125 0.0625 0  0.34375 0.0625 0  0.375 0.0625 0  0.40625 0.0625 0  0.4375 0.0625 0  0.46875 0.0625 0  0.5 0.0625 0  0.53125 0.0625 0  0.5625 0.0625 0  0.59375 0.0625 0  0.625 0.0625 0  0.65625 0.0625 0  0.6875 0.0625 0  0.71875 0.0625 0  0.75 0.0625 0  0.78125 0.0625 0  0.8125 0.0625 0  0.84375 0.0625 0  0.875 0.0625 0  0.90625 0.0625 0  0.9375 0.0625 0  0.96875 0.0625 0  1 0.0625 0  1.03125 0.0625 0  1.0625 0.0625 0  1.09375 0.0625 0  1.125 0.0625 0  1.15625 0.0625 0  1.1875 0.0625 0  1.21875 0.0625 0  1.25 0.0625 0  1.28125 0.0625 0  1.3125 0.0625 0  1.34375 0.0625 0  1.375 0.0625 0  1.40625 0.0625 0  1.4375 0.0625 0  1.46875 0.0625 0  1.5 0.0625 0  0 0.09375 0  0.03125 0.09375 0  0.0625 0.09375 0  0.09375 0.09375 0  0.125 0.09375 0  0.15625 0.09375 0  0.1875 0.09375 0  0.21875 0.09375 0  0.25 0.09375 0  0.28125 0.09375 0  0.3125 0.09375 0  0.34375 0.09375 0  0.375 0.09375 0  0.40625 0.09375 0  0.4375 0.09375 0  0.46875 0.09375 0  0.5 0.09375 0  0.53125 0.09375 0  0.5625 0.09375 0  0.59375 0.09375 0  0.625 0.09375 0  0.65625 0.09375 0  0.6875 0.09375 0  0.71875 0.09375 0  0.75 0.09375 0  0.78125 0.09375 0  0.8125 0.09375 0  0.84375 0.09375 0  0.875 0.09375 0  0.90625 0.09375 0  0.9375 0.09375 0  0.96875 0.09375 0  1 0.09375 0  1.03125 0.09375 0  1.0625 0.09375 0  1.09375 0.09375 0  1.125 0.09375 0  1.15625 0.09375 0  1.1875 0.09375 0  1.21875 0.09375 0  1.25 0.09375 0  1.28125 0.09375 0  1.3125 0.09375 0  1.34375 0.09375 0  1.375 0.09375 0  1.40625 0.09375 0  1.4375 0.09375 0  1.46875 0.09375 0  1.5 0.09375 0  0 0.125 0  0.03125 0.125 0  0.0625 0.125 0  0.09375 0.125 0  0.125 0.125 0  0.15625 0.125 0  0.1875 0.125 0  0.21875 0.125 0  0.25 0.125 0  0.28125 0.125 0  0.3125 0.125 0  0.34375 0.125 0  0.375 0.125 0  0.40625 0.125 0  0.4375 0.125 0  0.46875 0.125 0  0.5 0.125 0  0.53125 0.125 0  0.5625 0.125 0  0.59375 0.125 0  0.625 0.125 0  0.65625 0.125 0  0.6875 0.125 0  0.71875 0.125 0  0.75 0.125 0  0.78125 0.125 0  0.8125 0.125 0  0.84375 0.125 0  0.875 0.125 0  0.90625 0.125 0  0.9375 0.125 0  0.96875 0.125 0  1 0.125 0  1.03125 0.125 0  1.0625 0.125 0  1.09375 0.125 0  1.125 0.125 0  1.15625 0.125 0  1.1875 0.125 0  1.21875 0.125 0  1.25 0.125 0  1.28125 0.125 0  1.3125 0.125 0  1.34375 0.125 0  1.375 0.125 0  1.40625 0.125 0  1.4375 0.125 0  1.46875 0.125 0  1.5 0.125 0  0 0.15625 0  0.03125 0.15625 0  0.0625 0.15625 0  0.09375 0.15625 0  0.125 0.15625 0  0.15625 0.15625 0  0.1875 0.15625 0  0.21875 0.15625 0  0.25 0.15625 0  0.28125 0.15625 0  0.3125 0.15625 0  0.34375 0.15625 0  0.375 0.15625 0  0.40625 0.15625 0  0.4375 0.15625 0  0.46875 0.15625 0  0.5 0.15625 0  0.53125 0.15625 0  0.5625 0.15625 0  0.59375 0.15625 0  0.625 0.15625 0  0.65625 0.15625 0  0.6875 0.15625 0  0.71875 0.15625 0  0.75 0.15625 0  0.78125 0.15625 0  0.8125 0.15625 0  0.84375 0.15625 0  0.875 0.15625 0  0.90625 0.15625 0  0.9375 0.15625 0  0.96875 0.15625 0  1 0.15625 0  1.03125 0.15625 0  1.0625 0.15625 0  1.09375 0.15625 0  1.125 0.15625 0  1.15625 0.15625 0  1.1875 0.15625 0  1.21875 0.15625 0  1.25 0.15625 0  1.28125 0.15625 0  1.3125 0.15625 0  1.34375 0.15625 0  1.375 0.15625 0  1.40625 0.15625 0  1.4375 0.15625 0  1.46875 0.15625 0  1.5 0.15625 0  0 0.1875 0  0.03125 0.1875 0  0.0625 0.1875 0  0.09375 0.1875 0  0.125 0.1875 0  0.15625 0.1875 0  0.1875 0.1875 0  0.21875 0.1875 0  0.25 0.1875 0  0.28125 0.1875 0  0.3125 0.1875 0  0.34375 0.1875 0  0.375 0.1875 0  0.40625 0.1875 0  0.4375 0.1875 0  0.46875 0.1875 0  0.5 0.1875 0  0.53125 0.1875 0  0.5625 0.1875 0  0.59375 0.1875 0  0.625 0.1875 0  0.65625 0.1875 0  0.6875 0.1875 0  0.71875 0.1875 0  0.75 0.1875 0  0.78125 0.1875 0  0.8125 0.1875 0  0.84375 0.1875 0  0.875 0.1875 0  0.90625 0.1875 0  0.9375 0.1875 0  0.96875 0.1875 0  1 0.1875 0  1.03125 0.1875 0  1.0625 0.1875 0  1.09375 0.1875 0  1.125 0.1875 0  1.15625 0.1875 0  1.1875 0.1875 0  1.21875 0.1875 0  1.25 0.1875 0  1.28125 0.1875 0  1.3125 0.1875 0  1.34375 0.1875 0  1.375 0.1875 0  1.40625 0.1875 0  1.4375 0.1875 0  1.46875 0.1875 0  1.5 0.1875 0  0 0.21875 0  0.03125 0.21875 0  0.0625 0.21875 0  0.09375 0.21875 0  0.125 0.21875 0  0.15625 0.21875 0  0.1875 0.21875 0  0.21875 0.21875 0  0.25 0.21875 0  0.28125 0.21875 0  0.3125 0.21875 0  0.34375 0.21875 0  0.375 0.21875 0  0.40625 0.21875 0  0.4375 0.21875 0  0.46875 0.21875 0  0.5 0.21875 0  0.53125 0.21875 0  0.5625 0.21875 0  0.59375 0.21875 0  0.625 0.21875 0  0.65625 0.21875 0  0.6875 0.21875 0  0.71875 0.21875 0  0.75 0.21875 0  0.78125 0.21875 0  0.8125 0.21875 0  0.84375 0.21875 0  0.875 0.21875 0  0.90625 0.21875 0  0.9375 0.21875 0  0.96875 0.21875 0  1 0.21875 0  1.03125 0.21875 0  1.0625 0.21875 0  1.09375 0.21875 0  1.125 0.21875 0  1.15625 0.21875 0  1.1875 0.21875 0  1.21875 0.21875 0  1.25 0.21875 0  1.28125 0.21875 0  1.3125 0.21875 0  1.34375 0.21875 0  1.375 0.21875 0  1.40625 0.21875 0  1.4375 0.21875 0  1.46875 0.21875 0  1.5 0.21875 0  0 0.25 0  0.03125 0.25 0  0.0625 0.25 0  0.09375 0.25 0  0.125 0.25 0  0.15625 0.25 0  0.1875 0.25 0  0.21875 0.25 0  0.25 0.25 0  0.28125 0.25 0  0.3125 0.25 0  0.34375 0.25 0  0.375 0.25 0  0.40625 0.25 0  0.4375 0.25 0  0.46875 0.25 0  0.5 0.25 0  0.53125 0.25 0  0.5625 0.25 0  0.59375 0.25 0  0.625 0.25 0  0.65625 0.25 0  0.6875 0.25 0  0.71875 0.25 0  0.75 0.25 0  0.78125 0.25 0  0.8125 0.25 0  0.84375 0.25 0  0.875 0.25 0  0.90625 0.25 0  0.9375 0.25 0  0.96875 0.25 0  1 0.25 0  1.03125 0.25 0  1.0625 0.25 0  1.09375 0.25 0  1.125 0.25 0  1.15625 0.25 0  1.1875 0.25 0  1.21875 0.25 0  1.25 0.25 0  1.28125 0.25 0  1.3125 0.25 0  1.34375 0.25 0  1.375 0.25 0  1.40625 0.25 0  1.4375 0.25 0  1.46875 0.25 0  1.5 0.25 0  0 0.28125 0  0.03125 0.28125 0  0.0625 0.28125 0  0.09375 0.28125 0  0.125 0.28125 0  0.15625 0.28125 0  0.1875 0.28125 0  0.21875 0.28125 0  0.25 0.28125 0  0.28125 0.28125 0  0.3125 0.28125 0  0.34375 0.28125 0  0.375 0.28125 0  0.40625 0.28125 0  0.4375 0.28125 0  0.46875 0.28125 0  0.5 0.28125 0  0.53125 0.28125 0  0.5625 0.28125 0  0.59375 0.28125 0  0.625 0.28125 0  0.65625 0.28125 0  0.6875 0.28125 0  0.71875 0.28125 0  0.75 0.28125 0  0.78125 0.28125 0  0.8125 0.28125 0  0.84375 0.28125 0  0.875 0.28125 0  0.90625 0.28125 0  0.9375 0.28125 0  0.96875 0.28125 0  1 0.28125 0  1.03125 0.28125 0  1.0625 0.28125 0  1.09375 0.28125 0  1.125 0.28125 0  1.15625 0.28125 0  1.1875 0.28125 0  1.21875 0.28125 0  1.25 0.28125 0  1.28125 0.28125 0  1.3125 0.28125 0  1.34375 0.28125 0  1.375 0.28125 0  1.40625 0.28125 0  1.4375 0.28125 0  1.46875 0.28125 0  1.5 0.28125 0  0 0.3125 0  0.03125 0.3125 0  0.0625 0.3125 0  0.09375 0.3125 0  0.125 0.3125 0  0.15625 0.3125 0  0.1875 0.3125 0  0.21875 0.3125 0  0.25 0.3125 0  0.28125 0.3125 0  0.3125 0.3125 0  0.34375 0.3125 0  0.375 0.3125 0  0.40625 0.3125 0  0.4375 0.3125 0  0.46875 0.3125 0  0.5 0.3125 0  0.53125 0.3125 0  0.5625 0.3125 0  0.59375 0.3125 0  0.625 0.3125 0  0.65625 0.3125 0  0.6875 0.3125 0  0.71875 0.3125 0  0.75 0.3125 0  0.78125 0.3125 0  0.8125 0.3125 0  0.84375 0.3125 0  0.875 0.3125 0  0.90625 0.3125 0  0.9375 0.3125 0  0.96875 0.3125 0  1 0.3125 0  1.03125 0.3125 0  1.0625 0.3125 0  1.09375 0.3125 0  1.125 0.3125 0  1.15625 0.3125 0  1.1875 0.3125 0  1.21875 0.3125 0  1.25 0.3125 0  1.28125 0.3125 0  1.3125 0.3125 0  1.34375 0.3125 0  1.375 0.3125 0  1.40625 0.3125 0  1.4375 0.3125 0  1.46875 0.3125 0  1.5 0.3125 0  0 0.34375 0  0.03125 0.34375 0  0.0625 0.34375 0  0.09375 0.34375 0  0.125 0.34375 0  0.15625 0.34375 0  0.1875 0.34375 0  0.21875 0.34375 0  0.25 0.34375 0  0.28125 0.34375 0  0.3125 0.34375 0  0.34375 0.34375 0  0.375 0.34375 0  0.40625 0.34375 0  0.4375 0.34375 0  0.46875 0.34375 0  0.5 0.34375 0  0.53125 0.34375 0  0.5625 0.34375 0  0.59375 0.34375 0  0.625 0.34375 0  0.65625 0.34375 0  0.6875 0.34375 0  0.71875 0.34375 0  0.75 0.34375 0  0.78125 0.34375 0  0.8125 0.34375 0  0.84375 0.34375 0  0.875 0.34375 0  0.90625 0.34375 0  0.9375 0.34375 0  0.96875 0.34375 0  1 0.34375 0  1.03125 0.34375 0  1.0625 0.34375 0  1.09375 0.34375 0  1.125 0.34375 0  1.15625 0.34375 0  1.1875 0.34375 0  1.21875 0.34375 0  1.25 0.34375 0  1.28125 0.34375 0  1.3125 0.34375 0  1.34375 0.34375 0  1.375 0.34375 0  1
[...]
<PointData  Scalars="f_33"> 
<DataArray  type="Float64"  Name="f_33"  format="ascii">3.4185496650174788e-05  3.2474203994526296e-05  3.1618469363975110e-05  3.0581129678154802e-05  2.9405387541510188e-05  2.8099906270984978e-05  2.6721215640957694e-05  2.5314333643057238e-05  2.3910836015097048e-05  2.2530734217907819e-05  2.1185530824880716e-05  1.9881206863267274e-05  1.8620493997472988e-05  1.7404343317795282e-05  1.6232749521881412e-05  1.5105156434570046e-05  1.4020628907922557e-05  1.2977915947506157e-05  1.1975482166166124e-05  1.1011555744601641e-05  1.0084224272469249e-05  9.1915968764742617e-06  8.3320363983354540e-06  7.5044475911261715e-06  6.7085888899830328e-06  5.9453616603772694e-06  5.2170275782935995e-06  4.5273145942540549e-06  3.8813924379061213e-06  3.2857233752286408e-06  2.7478154046900165e-06  2.2759180973943612e-06  1.8787036565428143e-06  1.5649701038914987e-06  1.3433881585438919e-06  1.2222986880505056e-06  1.2095244928056473e-06  1.3121386295362531e-06  1.5359924097998440e-06  1.8847945853531597e-06  2.3584035309826633e-06  2.9494674884241468e-06  3.6414702679695017e-06  4.3954397545554066e-06  5.1764376206014855e-06  5.8406656265754999e-06  6.5667158155991280e-06  6.8640041552030005e-06  8.1321147982370203e-06  3.5024945381738078e-05  3.2530061178198909e-05  3.1699250484744921e-05  3.0625858301781216e-05  2.9440404189211302e-05  2.8110328989752281e-05  2.6710054242140751e-05  2.5287677377090532e-05  2.3874621572059311e-05  2.2489569273789564e-05  2.1142564017925323e-05  1.9838368763458201e-05  1.8578853050791606e-05  1.7364426579441674e-05  1.6194773992727783e-05  1.5069172172536347e-05  1.3986594919876991e-05  1.2945730695921909e-05  1.1944984635465389e-05  1.0982507850874446e-05  1.0056283220164443e-05  9.1642863246496510e-06  8.3047262472529760e-06  7.4763518770861686e-06  6.6787882948881661e-06  5.9128514470002909e-06  5.1807849290359611e-06  4.4863739069303648e-06  3.8349152170375667e-06  3.2330514746482178e-06  2.6885013747675074e-06  2.2097323613428469e-06  1.8056234790131759e-06  1.4851591920760762e-06  1.2571786219102977e-06  1.1301898679049179e-06  1.1122192381971484e-06  1.2106376788353511e-06  1.4317913744048231e-06  1.7801469002587758e-06  2.2568103526968172e-06  2.8557272516893767e-06  3.5629293794166777e-06  4.3387550342383627e-06  5.1563420096929182e-06  5.8429858386611688e-06  6.6277110368887805e-06  6.8409740534221985e-06  8.7909964622908299e-06  3.5794599823767827e-05  3.2945670364350744e-05  3.2073858270602249e-05  3.0811639534166300e-05  2.9556301523935119e-05  2.8149857837870655e-05  2.6693467842820003e-05  2.5230582892414966e-05  2.3790607136083773e-05  2.2389172936074469e-05  2.1033407718554888e-05  1.9725593462027962e-05  1.8465748066375196e-05  1.7253016736374892e-05  1.6086276467520906e-05  1.4964306785787869e-05  1.3885769603521831e-05  1.2849131631425227e-05  1.1852596185254923e-05  1.0894082475237995e-05  9.9712808267109760e-06  9.0818057348127153e-06  8.2234553602477918e-06  7.3945630291759083e-06  6.5943974831211835e-06  5.8235442835681347e-06  5.0841930756604307e-06  4.3802709400843588e-06  3.7173964740181383e-06  3.1026694465983537e-06  2.5443427294703479e-06  2.0514389228334134e-06  1.6333727954340315e-06  1.2996293183475377e-06  1.0595264061963270e-06  9.2207687494530211e-07  8.9591955090519208e-07  9.8926908952308434e-07  1.2096860976748772e-06  1.5633657210992839e-06  2.0537140740588708e-06  2.6772957432147568e-06  3.4231862828255205e-06  4.2520502186894492e-06  5.1421407070641465e-06  5.8974665168026204e-06  6.8156105759703461e-06  7.1250384970602458e-06  9.6136281561034920e-06  3.6446041486583059e-05  3.3512218802185653e-05  3.2624509102044523e-05  3.1171740379788318e-05  2.9815493429431369e-05  2.8297777805231979e-05  2.6757018226900967e-05  2.5228103953000213e-05  2.3739819684666087e-05  2.2304696118585330e-05  2.0926642029663245e-05  1.9604932275642187e-05  1.8337138196409886e-05  1.7120572814426729e-05  1.5952823822487319e-05  1.4831794136520535e-05  1.3755546939364627e-05  1.2722107522566112e-05  1.1729293467817947e-05  1.0774612570660072e-05  9.8552620134577506e-06  8.9682604533438147e-06  8.1107318345256671e-06  7.2803292817238000e-06  6.4757435160822880e-06  5.6971994323689548e-06  4.9468293573710617e-06  4.2288355521614880e-06  3.5494099506994512e-06  2.9164414778396749e-06  2.3390860882192482e-06  1.8272911395762480e-06  1.3913566672049603e-06  1.0415944508778644e-06  7.8811677932644322e-07  6.4076685480375222e-07  6.0915496919024492e-07  7.0273566676655344e-07  9.3070342362766123e-07  1.3013417249351192e-06  1.8205492462437751e-06  2.4874349953813885e-06  3.2932926486419026e-06  4.1994369452417123e-06  5.1844166591834430e-06  6.0489284769860304e-06  7.1070135758588462e-06  7.5803705511199414e-06  1.0274859878106812e-05  3.7126506152526166e-05  3.4169430673919742e-05  3.3232114456314309e-05  3.1646506565562705e-05  3.0181464234561977e-05  2.8543139407395039e-05  2.6904143208540718e-05  2.5292621276067445e-05  2.3739867666493901e-05  2.2256268544690498e-05  2.0843138847812910e-05  1.9496948166196176e-05  1.8212735446958183e-05  1.6985740904575306e-05  1.5811965315067032e-05  1.4688144864897556e-05  1.3611491962657314e-05  1.2579380302432150e-05  1.1589059058433803e-05  1.0637444720243741e-05  9.7210377238152255e-06  8.8360160440554188e-06  7.9785466557859766e-06  7.1453140971815495e-06  6.3341947859630387e-06  5.5449331562795832e-06  4.7796449023256194e-06  4.0430126736162679e-06  3.3421351839714384e-06  2.6860926710182669e-06  2.0853551742064632e-06  1.5511716792062169e-06  1.0950508163410800e-06  7.2840232840936135e-07  4.6236529046971036e-07  3.0782121068915395e-07  2.7553739932831164e-07  3.7635118893142186e-07  6.2113431338530357e-07  1.0201264708631675e-06  1.5812864875033140e-06  2.3055552025329882e-06  3.1852630201757728e-06  4.1816096260844491e-06  5.2716507132419678e-06  6.2545517702312218e-06  7.4437979885787934e-06  8.0519321889318957e-06  1.0844979983902292e-05  3.7824393692738385e-05  3.4853179307750878e-05  3.3864824585403268e-05  3.2183429077008089e-05  3.0614429975149163e-05  2.8862516991472591e-05  2.7122566546938353e-05  2.5421496611171971e-05  2.3795197761451717e-05  2.2253173852880597e-05  2.0795275345287633e-05  1.9415823067846622e-05  1.8107631862415856e-05  1.6863940414195248e-05  1.5679087455241206e-05  1.4548502218825301e-05  1.3468391816094720e-05  1.2435333643763722e-05  1.1445873695714046e-05  1.0496193319377114e-05  9.5819135260565876e-06  8.6981241799279648e-06  7.8397214987235698e-06  7.0020824917763577e-06  6.1819892413189711e-06  5.3785819072034414e-06  4.5940546204695924e-06  3.8338788273377953e-06  3.1065123472174171e-06  2.4227250730354444e-06  1.7947589837804571e-06  1.2355303527552809e-06  7.5801555839130136e-07  3.7488662369461516e-07  9.8400082215781498e-08  -5.9492083984231318e-08  -8.6894465879848383e-08  2.8295610234912907e-08  2.9837077563744306e-07  7.3506739153955230e-07  1.3476970901916201e-06  2.1380736158086382e-06  3.0984496276002139e-06  4.1887595120422018e-06  5.3831924528201250e-06  6.4774777059685586e-06  7.7774109017093493e-06  8.4852610512806942e-06  1.1331218575504559e-05  3.8514713256156547e-05  3.5531112316248054e-05  3.4498789222696752e-05  3.2742726682970050e-05  3.1082157165336638e-05  2.9229568949924053e-05  2.7393098799883412e-05  2.5603162287243748e-05  2.3900604090767634e-05  2.2295346343533452e-05  2.0786928405438035e-05  1.9368304570352315e-05  1.8030575306313061e-05  1.6765250560597877e-05  1.5565107270844067e-05  1.4424267975794511e-05  1.3337887974817863e-05  1.2301689235279455e-05  1.1311452600661536e-05  1.0362542900384869e-05  9.4495623551494810e-06  8.5662717004329777e-06  7.7059376887589709e-06  6.8622043830250066e-06  6.0303962040030825e-06  5.2089062140057913e-06  4.4001818523435935e-06  3.6109498652698380e-06  2.8516535778742725e-06  2.1353766150137985e-06  1.4766324657785113e-06  8.9032610601234489e-07  3.9104980315472039e-07  -7.2512763425492148e-09  -2.9128944881880295e-07  -4.4819998034142938e-07  -4.6518580831997303e-07  -3.2919448100333980e-07  -2.6952712577370166e-08  4.5417378486612212e-07  1.1240805153096749e-06  1.9845524573574151e-06  3.0267935153055280e-06  4.2085247024116780e-06  5.4999968053429654e-06  6.6922157442091727e-06  8.0817226104878576e-06  8.8627945313220731e-06  1.1741199017634022e-05  3.9177884250838967e-05  3.6183349121707457e-05  3.5114639238746669e-05  3.3298333804737600e-05  3.1560247992329176e-05  2.9620499753837659e-05  2.7696163557204148e-05  2.5822943719179877e-05  2.4046212248886903e-05  2.2377384409499254e-05  2.0816533549926210e-05  1.9355954150875836e-05  1.7985581637079474e-05  1.6695553247066688e-05  1.5477286240780225e-05  1.4323693365892393e-05  1.3228916983490953e-05  1.2187842111342058e-05  1.1195500932920890e-05  1.0246440313678743e-05  9.3341713607650882e-06  8.4509050773157522e-06  7.5878574658633519e-06  6.7363721099726208e-06  5.8898041373202327e-06  5.0456164592579081e-06  4.2068161250803716e-06  3.3821076955770851e-06  2.5848062724485871e-06  1.8310913266587564e-06  1.1382651756275449e-06  5.2344187080681200e-07  2.8054363736880906e-09  -4.0861355916980676e-07  -6.9677784866380442e-07  -8.4824459002510940e-07  -8.4969286891360853e-07  -6.8755445493437999e-07  -3.4808783599606937e-07  1.8163357927895678e-07  9.1140078381012291e-07  1.8422413031716651e-06  2.9636146763980565e-06  4.2304241968818056e-06  5.6085349615263927e-06  6.8839995598610169e-06  8.3449601325800223e-06  9.1806920406017483e-06  1.2081179684801626e-05  3.9799553645601339e-05  3.6795732340667549e-05  3.5697431435979580e-05  3.3832040027467578e-05  3.2029416494190164e-05  3.0015454583206774e-05  2.8013902418593642e-05  2.6065663184597741e-05  2.4220146708702575e-05  2.2490872776819193e-05  2.0878930775002624e-05  1.9376512209201247e-05  1.7972869330548676e-05  1.6657118434580038e-05  1.5419552556788108e-05  1.4252015292919819e-05  1.3147720668534883e-05  1.2100784077778452e-05  1.1105571914669492e-05  1.0155899080228870e-05  9.2442100726172690e-06  8.3609941681026944e-06  7.4949157684439728e-06  6.6342213410543492e-06  5.7695230507494191e-06  4.8970971026929017e-06  4.0210516420610982e-06  3.1532226995082943e-06  2.3110697601116468e-06  1.5148246599786704e-06  7.8504198596171130e-07  1.4106219427295646e-07  -3.9962005099840033e-07  -8.2131998520078921e-07  -1.1097297145047695e-06  -1.2513056508008986e-06  -1.2326701745261825e-06  -1.0402102095242497e-06  -6.6020898217611829e-07  -7.9969236651187788e-08  7.0966293289091768e-07  1.7084585937971714e-06  2.9037379858529587e-06  4.2473691974250548e-06  5.7009123022918434e-06  7.0459554035031724e-06  8.5638288726258080e-06  9.4412050831671131e-06  1.2357787449571935e-05  4.0368775588722624e-05  3.7357314335326724e-05  3.6235271529289865e-05  3.4329978769449098e-05  3.2474273159512975e-05  3.0398162580897515e-05  2.8330571364668992e-05  2.6316876510389097e-05  2.4410053587001832e-05  2.2625889676110212e-05  2.0966712772502386e-05  1.9424999855394330e-05  1.7989687856529629e-05  1.6649175497955028e-05  1.5392854458734474e-05  1.4211641085625466e-05  1.3097909361584833e-05  1.2045079932821789e-05  1.1046972477316650e-05  1.0096835059328228e-05  9.1862093621706933e-06  8.3037974908597181e-06  7.4351322072471869e-06  6.5642043218210321e-06  5.6776376113839285e-06  4.7701361585045931e-06  3.8478971230689399e-06  2.9277844468370039e-06  2.0332259620445999e-06  1.1895850919873836e-06  4.2090705911639498e-07  -2.5159763794851687e-07  -8.0976727823076349e-07  -1.2379682502164767e-06  -1.5222719903395087e-06  -1.6495936604027554e-06  -1.6069790386720304e-06  -1.3811987358544324e-06  -9.5896162319500632e-07  -3.2818017351293061e-07  5.1932024809490837e-07  1.5817911473013616e-06  2.8442950672008451e-06  4.2557580909398214e-06  5.7738573400709125e-06  7.1765060020993114e-06  8.7397981863747144e-06  9.6494476981126269e-06  1.2578255139399907e-05  4.0876802806969333e-05  3.7859223879306286e-05  3.6718423993177051e-05  3.4781037845530893e-05  3.2882304578060257e-05  3.0755114202009949e-05  2.8632448785475755e-05  2.6563341478374074e-05  2.4603838884086824e-05  2.2771882120900687e-05  2.1071097974597634e-05  1.9494480418327597e-05  1.8030909481960753e-05  1.6668312648852266e-05  1.5395373744865162e-05  1.4202205285252970e-05  1.3080403098554776e-05  1.2022732649108141e-05  1.1022568875193653e-05  1.0072796994445213e-05  9.1644137026347028e-06  8.2844754860822980e-06  7.4147944239978246e-06  6.5333935219492153e-06  5.6207887064723047e-06  4.6695145100505571e-06  3.6897304933864308e-06  2.7065060167278250e-06  1.7517623412158337e-06  8.5695595821524983e-07  4.9290608250970272e-08  -6.4912632633976297e-07  -1.2205632334742425e-06  -1.6503943798344871e-06  -1.9258102865353711e-06  -2.0347282789179470e-06  -1.9650184136907778e-06  -1.7041455405204475e-06  -1.2394986331961069e-06  -5.5980852568087434e-07  3.4197284123990717e-07  1.4625264761978837e-06  2.7847585539864824e-06  4.2549541786320928e-06  5.8274953641952506e-06  7.2774504661497960e-06  8.8770048627162036e-06  9.8119310460917771e-06  1.2750232256312400e-05  4.1316415242610325e-05  3.8294084478870930e-05  3.7138778381962234e-05  3.5176058625045109e-05  3.3243160382423840e-05  3.1074971162220108e-05  2.8907650093378882e-05  2.6793133520252772e-05  2.4790033997244129e-05  2.2918202797397957e-05  2.1182518970024196e-05  1.9576603935833689e-05  1.8089458410526365e-05  1.6708740729397690e-05  1.5422601906874019e-05  1.4220465562784433e-05  1.3093185714335781e-05  1.2032853840198648e-05  1.1032409793063973e-05  1.0084525636169970e-05  9.1802324957382210e-06  8.3054139941733672e-06  7.4378560163052877e-06  6.5470810644568611e-06  5.6037309973846503e-06  4.5973001300014216e-06  3.5455594812577439e-06  2.4870832178889923e-06  1.4654441231984366e-06  5.1838270685800937e-07  -3.2521282698079853e-07  -1.0441699849333681e-06  -1.6227170231107929e-06  -2.0483005835787162e-06  -2.3098945689360725e-06  -2.3968064758381530e-06  -2.2979522004491876e-06  -2.0016206405983389e-06  -1.4959577302807274e-06  -7.7054514516367836e-07  1.8056670328984667e-07  1.3526071986604820e-06  2.7265810609021873e-06  4.2465473757805963e-06  5.8642268467113847e-06  7.3525868322621324e-06  8.9809541335123165e-06  9.9357180357340768e-06  1.2881440330412836e-05  4.1681578988566804e-05  3.8655712478241615e-05  3.7489551815651556e-05  3.5507432770285019e-05  3.3548239038820352e-05  3.1348213276570069e-05  2.9145968801778471e-05  2.6995683706376624e-05  2.4958043199281209e-05  2.3054509304234698e-05  2.1291094426874621e-05  1.9662075013156069e-05  1.8156694842525423e-05  1.6762519358927761e-05  1.5467348687235907e-05  1.4260061025537995e-05  1.3130829000483834e-05  1.2071026161623500e-05  1.1073020341804014e-05  1.0129226096401371e-05  9.2313696154867160e-06  8.3650094270444302e-06  7.5047228453759031e-06  6.6077736747101529e-06  5.6282348465884018e-06  4.5516281485798235e-06  3.4103026239704144e-06  2.2647593156452424e-06  1.1732353182530871e-06  1.7784947770372347e-07  -6.9410607850735757e-07  -1.4250774107869556e-06  -2.0029118307999445e-06  -2.4179716271750462e-06  -2.6613555047147103e-06  -2.7238411006098092e-06  -2.5953539942588240e-06  -2.2649278579657978e-06  -1.7213685939178111e-06  -9.5499001441872285e-07  3.9222131279249297e-08  1.2552812966618203e-06  2.6726355198612074e-06  4.2335748880897541e-06  5.8877687002089073e-06  7.4066940470039741e-06  9.0576308645381823e-06  1.0027812286905653e-05  1.2979285701182549e-05  4.1967304641636692e-05  3.8938989261577893e-05  3.7765152195639889e-05  3.5768919596697104e-05  3.3790487633459118e-05  3.1566973877157129e-05  2.9338823994171597e-05  2.7161874792124061e-05  2.5098408864046145e-05  2.3171172742321301e-05  2.1387139865915623e-05  1.9741206651551244e-05  1.8222934297048642e-05  1.6819949580126789e-05  1.5519902166331954e-05  1.4311333340195235e-05  1.3183900340305520e-05  1.2128304979038588e-05  1.1136150710075851e-05  1.0199309370676285e-05  9.3104395955208029e-06  8.4556789119754216e-06  7.6098464915233484e-06  6.7124019531630616e-06  5.6903546251025120e-06  4.5251495517772645e-06  3.2753932488115034e-06  2.0354598664331110e-06  8.7901087418433451e-07  -1.5336702748190332e-07  -1.0411806119368230e-06  -1.7733150883354802e-06  -2.3422966649435593e-06  -2.7415504314230358e-06  -2.9640811597705620e-06  -3.0018244179730983e-06  -2.8454191869941006e-06  -2.4843909282475560e-06  -1.9079851761321412e-06  -1.1070336452799771e-06  -7.7216340587696298e-08  1.1745597260466660e-06  2.6265651940147097e-06  4.2197705566047783e-06  5.9023447828577668e-06  7.4447465374859079e-06  9.1128339054226032e-06  1.0094670908416921e-05  1.3050477377990916e-05  4.2169621933558577e-05  3.9139841569045204e-05  3.7961149464793581e-05  3.5955598527703647e-05  3.3964349441696454e-05  3.1725019727639598e-05  2.9479324427970017e-05  2.7284230948204694e-05  2.5203155579083774e-05  2.3259782259860534e-05  2.1461824871896197e-05  1.9804702442302525e-05  1.8278305592729859e-05  1.6870427861469178e-05  1.5568752576454968e-05  1.4361733855477105e-05  1.3238807741986169e-05  1.2190272570561269e-05  1.1207051338091198e-05  1.0280286061507591e-05  9.4027538243423599e-06  8.5611510742193863e-06  7.7369350140092875e-06  6.8449110440891351e-06  5.7750071941389526e-06  4.5057908515466667e-06  3.1348373544987421e-06  1.8049166064359735e-06  6.0057231099510484e-07  -4.5008915121491795e-07  -1.3387453922723871e-06  -2.0619201682851884e-06  -2.6163416096269148e-06  -2.9976319363498658e-06  -3.1999158381795732e-06  -3.2156875712350706e-06  -3.0358692611068009e-06  -2.6501653801551712e-06  -2.0480117977585553e-06  -1.2205252207516816e-06  -1.6382413023666788e-07  1.1145668042887287e-06  2.5921123698710561e-06  4.2088758774855008e-06  5.9120064668927361e-06  7.4712919292853008e-06  9.1516542273459334e-06  1.0141801875537965e-05  1.3100681857564965e-05  4.2285613149894606e-05  3.9255279263178943e-05  3.8074309638159136e-05  3.6063898866623518e-05  3.4065801274077186e-05  3.1817823532461575e-05  2.9562415951511054e-05  2.7357181074360498e-05  2.5266207726595031e-05  2.3313749078013206e-05  2.1507991998829444e-05  1.9844713877497875e-05  1.8314064102724374e-05  1.6904015001863378e-05  1.5602371764603311e-05  1.4397670230541461e-05  1.3279389557309207e-05  1.2237795696884475e-05  1.1263600911032411e-05  1.0347591920709029e-05  9.4816030542852767e-06  8.6524457372680603e-06  7.8523622770950945e-06  6.9648100733880142e-06  5.8515130915551259e-06  4.4891484614480646e-06  3.0042482796866662e-06  1.6065370072280305e-06  3.8144761565008666e-07  -6.6837834801967662e-07  -1.5473628167416743e-06  -2.2575008006252148e-06  -2.7975952734857779e-06  -3.1640025001243672e-06  -3.3510603138728763e-06  -3.3512792481624987e-06  -3.1555365378899288e-06  -2.7534994305496361e-06  -2.1346197603013171e-06  -1.2901187279219060e-06  -2.1633320356213278e-07  1.0788687791296294e-06  2.5724863317744211e-06  4.2040411932726113e-06  5.9200777142335513e-06  7.4899620662844554e-06  9.1780669803625736e-06  1.0173438448387591e-05  1.3134232677068110e-05  4.2313462750607831e-05  3.9283449532312209e-05  3.8102650775539247e-05  3.6091659457508732e-05  3.4092427328089071e-05  3.1842672155305567e-05  2.9585054827093666e-05  2.7377333991975938e-05  2.5283808393920775e-05  2.3328916457389931e-05  2.1521015335711934e-05  1.9856022126495265e-05  1.8324198071007535e-05  1.6913603386886729e-05  1.5612115142098359e-05  1.4408334182625581e-05  1.3291804940227630e-05  1.2252858366507247e-05  1.1282256794671256e-05  1.0370851736864737e-05  9.5098234379984581e-06  8.6871452725711943e-06  7.9008576060680690e-06  7.0230288775995240e-06  5.8881908418255801e-06  4.4926275722848297e-06  2.9541873360018807e-06  1.5186858126409585e-06  2.9206933305006024e-07  -7.5278500310061792e-07  -1.6251377653805571e-06  -2.3286541082259056e-06  -2.8624120973327739e-06  -3.2227195930807442e-06  -3.4038078127033138e-06  -3.3980857807706808e-06  -3.1963462959746377e-06  -2.7881941927307514e-06  -2.1630473093514296e-06  -1.3121308026997367e-06  -2.3183164321239664e-07  1.06987