<?xml version="1.0"?>
<VTKFile type="UnstructuredGrid"  version="0.1"  >
<UnstructuredGrid>
<Piece  NumberOfPoints="1617" NumberOfCells="3072">
<Points>
<DataArray  type="Float64"  NumberOfComponents="3"  format="ascii">0 0 0  0.03125 0 0  0.0625 0 0  0.09375 0 0  0.125 0 0  0.15625 0 0  0.1875 0 0  0.21875 0 0  0.25 0 0  0.28125 0 0  0.3125 0 0  0.34375 0 0  0.375 0 0  0.40625 0 0  0.4375 0 0  0.46875 0 0  0.5 0 0  0.53125 0 0  0.5625 0 0  0.59375 0 0  0.625 0 0  0.65625 0 0  0.6875 0 0  0.71875 0 0  0.75 0 0  0.78125 0 0  0.8125 0 0  0.84375 0 0  0.875 0 0  0.90625 0 0  0.9375 0 0  0.96875 0 0  1 0 0  1.03125 0 0  1.0625 0 0  1.09375 0 0  1.125 0 0  1.15625 0 0  1.1875 0 0  1.21875 0 0  1.25 0 0  1.28125 0 0  1.3125 0 0  1.34375 0 0  1.375 0 0  1.40625 0 0  1.4375 0 0  1.46875 0 0  1.5 0 0  0 0.03125 0  0.03125 0.03125 0  0.0625 0.03125 0  0.09375 0.03125 0  0.125 0.03125 0  0.15625 0.03125 0  0.1875 0.03125 0  0.21875 0.03125 0  0.25 0.03125 0  0.28125 0.03125 0  0.3125 0.03125 0  0.34375 0.03125 0  0.375 0.03125 0  0.40625 0.03125 0  0.4375 0.03125 0  0.46875 0.03125 0  0.5 0.03125 0  0.53125 0.03125 0  0.5625 0.03125 0  0.59375 0.03125 0  0.625 0.03125 0  0.65625 0.03125 0  0.6875 0.03125 0  0.71875 0.03125 0  0.75 0.03125 0  0.78125 0.03125 0  0.8125 0.03125 0  0.84375 0.03125 0  0.875 0.03125 0  0.90625 0.03125 0  0.9375 0.03125 0  0.96875 0.03125 0  1 0.03125 0  1.03125 0.03125 0  1.0625 0.03125 0  1.09375 0.03125 0  1.125 0.03125 0  1.15625 0.03125 0  1.1875 0.03125 0  1.21875 0.03125 0  1.25 0.03125 0  1.28125 0.03125 0  1.3125 0.03125 0  1.34375 0.03125 0  1.375 0.03125 0  1.40625 0.03125 0  1.4375 0.03125 0  1.46875 0.03125 0  1.5 0.03125 0  0 0.0625 0  0.03125 0.0625 0  0.0625 0.0625 0  0.09375 0.0625 0  0.125 0.0625 0  0.15625 0.0625 0  0.1875 0.0625 0  0.21875 0.0625 0  0.25 0.0625 0  0.28125 0.0625 0  0.3125 0.0625 0  0.34375 0.0625 0  0.375 0.0625 0  0.40625 0.0625 0  0.4375 0.0625 0  0.46875 0.0625 0  0.5 0.0625 0  0.53125 0.0625 0  0.5625 0.0625 0  0.59375 0.0625 0  0.625 0.0625 0  0.65625 0.0625 0  0.6875 0.0625 0  0.71875 0.0625 0  0.75 0.0625 0  0.78125 0.0625 0  0.8125 0.0625 0  0.84375 0.0625 0  0.875 0.0625 0  0.90625 0.0625 0  0.9375 0.0625 0  0.96875 0.0625 0  1 0.0625 0  1.03125 0.0625 0  1.0625 0.0625 0  1.09375 0.0625 0  1.125 0.0625 0  1.15625 0.0625 0  1.1875 0.0625 0  1.21875 0.0625 0  1.25 0.0625 0  1.28125 0.0625 0  1.3125 0.0625 0  1.34375 0.0625 0  1.375 0.0625 0  1.40625 0.0625 0  1.4375 0.0625 0  1.46875 0.0625 0  1.5 0.0625 0  0 0.09375 0  0.03125 0.09375 0  0.0625 0.09375 0  0.09375 0.09375 0  0.125 0.09375 0  0.15625 0.09375 0  0.1875 0.09375 0  0.21875 0.09375 0  0.25 0.09375 0  0.28125 0.09375 0  0.3125 0.09375 0  0.34375 0.09375 0  0.375 0.09375 0  0.40625 0.09375 0  0.4375 0.09375 0  0.46875 0.09375 0  0.5 0.09375 0  0.53125 0.09375 0  0.5625 0.09375 0  0.59375 0.09375 0  0.625 0.09375 0  0.65625 0.09375 0  0.6875 0.09375 0  0.71875 0.09375 0  0.75 0.09375 0  0.78125 0.09375 0  0.8125 0.09375 0  0.84375 0.09375 0  0.875 0.09375 0  0.90625 0.09375 0  0.9375 0.09375 0  0.96875 0.09375 0  1 0.09375 0  1.03125 0.09375 0  1.0625 0.09375 0  1.09375 0.09375 0  1.125 0.09375 0  1.15625 0.09375 0  1.1875 0.09375 0  1.21875 0.09375 0  1.25 0.09375 0  1.28125 0.09375 0  1.3125 0.09375 0  1.34375 0.09375 0  1.375 0.09375 0  1.40625 0.09375 0  1.4375 0.09375 0  1.46875 0.09375 0  1.5 0.09375 0  0 0.125 0  0.03125 0.125 0  0.0625 0.125 0  0.09375 0.125 0  0.125 0.125 0  0.15625 0.125 0  0.1875 0.125 0  0.21875 0.125 0  0.25 0.125 0  0.28125 0.125 0  0.3125 0.125 0  0.34375 0.125 0  0.375 0.125 0  0.40625 0.125 0  0.4375 0.125 0  0.46875 0.125 0  0.5 0.125 0  0.53125 0.125 0  0.5625 0.125 0  0.59375 0.125 0  0.625 0.125 0  0.65625 0.125 0  0.6875 0.125 0  0.71875 0.125 0  0.75 0.125 0  0.78125 0.125 0  0.8125 0.125 0  0.84375 0.125 0  0.875 0.125 0  0.90625 0.125 0  0.9375 0.125 0  0.96875 0.125 0  1 0.125 0  1.03125 0.125 0  1.0625 0.125 0  1.09375 0.125 0  1.125 0.125 0  1.15625 0.125 0  1.1875 0.125 0  1.21875 0.125 0  1.25 0.125 0  1.28125 0.125 0  1.3125 0.125 0  1.34375 0.125 0  1.375 0.125 0  1.40625 0.125 0  1.4375 0.125 0  1.46875 0.125 0  1.5 0.125 0  0 0.15625 0  0.03125 0.15625 0  0.0625 0.15625 0  0.09375 0.15625 0  0.125 0.15625 0  0.15625 0.15625 0  0.1875 0.15625 0  0.21875 0.15625 0  0.25 0.15625 0  0.28125 0.15625 0  0.3125 0.15625 0  0.34375 0.15625 0  0.375 0.15625 0  0.40625 0.15625 0  0.4375 0.15625 0  0.46875 0.15625 0  0.5 0.15625 0  0.53125 0.15625 0  0.5625 0.15625 0  0.59375 0.15625 0  0.625 0.15625 0  0.65625 0.15625 0  0.6875 0.15625 0  0.71875 0.15625 0  0.75 0.15625 0  0.78125 0.15625 0  0.8125 0.15625 0  0.84375 0.15625 0  0.875 0.15625 0  0.90625 0.15625 0  0.9375 0.15625 0  0.96875 0.15625 0  1 0.15625 0  1.03125 0.15625 0  1.0625 0.15625 0  1.09375 0.15625 0  1.125 0.15625 0  1.15625 0.15625 0  1.1875 0.15625 0  1.21875 0.15625 0  1.25 0.15625 0  1.28125 0.15625 0  1.3125 0.15625 0  1.34375 0.15625 0  1.375 0.15625 0  1.40625 0.15625 0  1.4375 0.15625 0  1.46875 0.15625 0  1.5 0.15625 0  0 0.1875 0  0.03125 0.1875 0  0.0625 0.1875 0  0.09375 0.1875 0  0.125 0.1875 0  0.15625 0.1875 0  0.1875 0.1875 0  0.21875 0.1875 0  0.25 0.1875 0  0.28125 0.1875 0  0.3125 0.1875 0  0.34375 0.1875 0  0.375 0.1875 0  0.40625 0.1875 0  0.4375 0.1875 0  0.46875 0.1875 0  0.5 0.1875 0  0.53125 0.1875 0  0.5625 0.1875 0  0.59375 0.1875 0  0.625 0.1875 0  0.65625 0.1875 0  0.6875 0.1875 0  0.71875 0.1875 0  0.75 0.1875 0  0.78125 0.1875 0  0.8125 0.1875 0  0.84375 0.1875 0  0.875 0.1875 0  0.90625 0.1875 0  0.9375 0.1875 0  0.96875 0.1875 0  1 0.1875 0  1.03125 0.1875 0  1.0625 0.1875 0  1.09375 0.1875 0  1.125 0.1875 0  1.15625 0.1875 0  1.1875 0.1875 0  1.21875 0.1875 0  1.25 0.1875 0  1.28125 0.1875 0  1.3125 0.1875 0  1.34375 0.1875 0  1.375 0.1875 0  1.40625 0.1875 0  1.4375 0.1875 0  1.46875 0.1875 0  1.5 0.1875 0  0 0.21875 0  0.03125 0.21875 0  0.0625 0.21875 0  0.09375 0.21875 0  0.125 0.21875 0  0.15625 0.21875 0  0.1875 0.21875 0  0.21875 0.21875 0  0.25 0.21875 0  0.28125 0.21875 0  0.3125 0.21875 0  0.34375 0.21875 0  0.375 0.21875 0  0.40625 0.21875 0  0.4375 0.21875 0  0.46875 0.21875 0  0.5 0.21875 0  0.53125 0.21875 0  0.5625 0.21875 0  0.59375 0.21875 0  0.625 0.21875 0  0.65625 0.21875 0  0.6875 0.21875 0  0.71875 0.21875 0  0.75 0.21875 0  0.78125 0.21875 0  0.8125 0.21875 0  0.84375 0.21875 0  0.875 0.21875 0  0.90625 0.21875 0  0.9375 0.21875 0  0.96875 0.21875 0  1 0.21875 0  1.03125 0.21875 0  1.0625 0.21875 0  1.09375 0.21875 0  1.125 0.21875 0  1.15625 0.21875 0  1.1875 0.21875 0  1.21875 0.21875 0  1.25 0.21875 0  1.28125 0.21875 0  1.3125 0.21875 0  1.34375 0.21875 0  1.375 0.21875 0  1.40625 0.21875 0  1.4375 0.21875 0  1.46875 0.21875 0  1.5 0.21875 0  0 0.25 0  0.03125 0.25 0  0.0625 0.25 0  0.09375 0.25 0  0.125 0.25 0  0.15625 0.25 0  0.1875 0.25 0  0.21875 0.25 0  0.25 0.25 0  0.28125 0.25 0  0.3125 0.25 0  0.34375 0.25 0  0.375 0.25 0  0.40625 0.25 0  0.4375 0.25 0  0.46875 0.25 0  0.5 0.25 0  0.53125 0.25 0  0.5625 0.25 0  0.59375 0.25 0  0.625 0.25 0  0.65625 0.25 0  0.6875 0.25 0  0.71875 0.25 0  0.75 0.25 0  0.78125 0.25 0  0.8125 0.25 0  0.84375 0.25 0  0.875 0.25 0  0.90625 0.25 0  0.9375 0.25 0  0.96875 0.25 0  1 0.25 0  1.03125 0.25 0  1.0625 0.25 0  1.09375 0.25 0  1.125 0.25 0  1.15625 0.25 0  1.1875 0.25 0  1.21875 0.25 0  1.25 0.25 0  1.28125 0.25 0  1.3125 0.25 0  1.34375 0.25 0  1.375 0.25 0  1.40625 0.25 0  1.4375 0.25 0  1.46875 0.25 0  1.5 0.25 0  0 0.28125 0  0.03125 0.28125 0  0.0625 0.28125 0  0.09375 0.28125 0  0.125 0.28125 0  0.15625 0.28125 0  0.1875 0.28125 0  0.21875 0.28125 0  0.25 0.28125 0  0.28125 0.28125 0  0.3125 0.28125 0  0.34375 0.28125 0  0.375 0.28125 0  0.40625 0.28125 0  0.4375 0.28125 0  0.46875 0.28125 0  0.5 0.28125 0  0.53125 0.28125 0  0.5625 0.28125 0  0.59375 0.28125 0  0.625 0.28125 0  0.65625 0.28125 0  0.6875 0.28125 0  0.71875 0.28125 0  0.75 0.28125 0  0.78125 0.28125 0  0.8125 0.28125 0  0.84375 0.28125 0  0.875 0.28125 0  0.90625 0.28125 0  0.9375 0.28125 0  0.96875 0.28125 0  1 0.28125 0  1.03125 0.28125 0  1.0625 0.28125 0  1.09375 0.28125 0  1.125 0.28125 0  1.15625 0.28125 0  1.1875 0.28125 0  1.21875 0.28125 0  1.25 0.28125 0  1.28125 0.28125 0  1.3125 0.28125 0  1.34375 0.28125 0  1.375 0.28125 0  1.40625 0.28125 0  1.4375 0.28125 0  1.46875 0.28125 0  1.5 0.28125 0  0 0.3125 0  0.03125 0.3125 0  0.0625 0.3125 0  0.09375 0.3125 0  0.125 0.3125 0  0.15625 0.3125 0  0.1875 0.3125 0  0.21875 0.3125 0  0.25 0.3125 0  0.28125 0.3125 0  0.3125 0.3125 0  0.34375 0.3125 0  0.375 0.3125 0  0.40625 0.3125 0  0.4375 0.3125 0  0.46875 0.3125 0  0.5 0.3125 0  0.53125 0.3125 0  0.5625 0.3125 0  0.59375 0.3125 0  0.625 0.3125 0  0.65625 0.3125 0  0.6875 0.3125 0  0.71875 0.3125 0  0.75 0.3125 0  0.78125 0.3125 0  0.8125 0.3125 0  0.84375 0.3125 0  0.875 0.3125 0  0.90625 0.3125 0  0.9375 0.3125 0  0.96875 0.3125 0  1 0.3125 0  1.03125 0.3125 0  1.0625 0.3125 0  1.09375 0.3125 0  1.125 0.3125 0  1.15625 0.3125 0  1.1875 0.3125 0  1.21875 0.3125 0  1.25 0.3125 0  1.28125 0.3125 0  1.3125 0.3125 0  1.34375 0.3125 0  1.375 0.3125 0  1.40625 0.3125 0  1.4375 0.3125 0  1.46875 0.3125 0  1.5 0.3125 0  0 0.34375 0  0.03125 0.34375 0  0.0625 0.34375 0  0.09375 0.34375 0  0.125 0.34375 0  0.15625 0.34375 0  0.1875 0.34375 0  0.21875 0.34375 0  0.25 0.34375 0  0.28125 0.34375 0  0.3125 0.34375 0  0.34375 0.34375 0  0.375 0.34375 0  0.40625 0.34375 0  0.4375 0.34375 0  0.46875 0.34375 0  0.5 0.34375 0  0.53125 0.34375 0  0.5625 0.34375 0  0.59375 0.34375 0  0.625 0.34375 0  0.65625 0.34375 0  0.6875 0.34375 0  0.71875 0.34375 0  0.75 0.34375 0  0.78125 0.34375 0  0.8125 0.34375 0  0.84375 0.34375 0  0.875 0.34375 0  0.90625 0.34375 0  0.9375 0.34375 0  0.96875 0.34375 0  1 0.34375 0  1.03125 0.34375 0  1.0625 0.34375 0  1.09375 0.34375 0  1.125 0.34375 0  1.15625 0.34375 0  1.1875 0.34375 0  1.21875 0.34375 0  1.25 0.34375 0  1.28125 0.34375 0  1.3125 0.34375 0  1.34375 0.34375 0  1.375 0.34375 0  1
[...]
<PointData  Scalars="f_33"> 
<DataArray  type="Float64"  Name="f_33"  format="ascii">2.1570073780609916e-05  1.8918042756215619e-05  1.6623219748362173e-05  1.4431840467071457e-05  1.2363823334161799e-05  1.0417097708491524e-05  8.5887672278103188e-06  6.8753254158545576e-06  5.2731075814870116e-06  3.7785554785757704e-06  2.3882657781311993e-06  1.0989648671980148e-06  -9.2507550051372157e-08  -1.1891995323996877e-06  -2.1940396712094663e-06  -3.1098244657322833e-06  -3.9392043129163269e-06  -4.6846689241990482e-06  -5.3485306862474669e-06  -5.9329029460248789e-06  -6.4396692708303371e-06  -6.8704402525127330e-06  -7.2264966134931897e-06  -7.5087211841906836e-06  -7.7175268846304830e-06  -7.8527915734709048e-06  -7.9138116402562201e-06  -7.8992838700770606e-06  -7.8073196815915520e-06  -7.6354901185276727e-06  -7.3808942940901410e-06  -7.0402428591017376e-06  -6.6099451320522093e-06  -6.0861956408825428e-06  -5.4650478471736771e-06  -4.7424854356263492e-06  -3.9144646983394358e-06  -2.9769768017371478e-06  -1.9260364908395374e-06  -7.5777280159989720e-07  5.3169504715975164e-07  1.9460645877046296e-06  3.4889444222493247e-06  5.1641059524418613e-06  6.9714170006463265e-06  8.9182026667106909e-06  1.0968673858083221e-05  1.3122406752897148e-05  1.4999603182947676e-05  2.2423135024293929e-05  1.9117537639362535e-05  1.6624320185915730e-05  1.4389347079318511e-05  1.2310548796598118e-05  1.0362445515224308e-05  8.5347974360173807e-06  6.8225226430736237e-06  5.2214560558118449e-06  3.7279323310764528e-06  2.3385519032272285e-06  1.0500663161155731e-06  -1.4066248026172586e-07  -1.2366687541698046e-06  -2.2408741394788928e-06  -3.1560725080831955e-06  -3.9849149796552376e-06  -4.7298954493053674e-06  -5.3933351023714394e-06  -5.9773623048150297e-06  -6.4838830836079431e-06  -6.9145378306118160e-06  -7.2706421664596053e-06  -7.5531142575222247e-06  -7.7623963501185474e-06  -7.8983829183421892e-06  -7.9603692630833591e-06  -7.9470315732368503e-06  -7.8564430486835922e-06  -7.6861236104018950e-06  -7.4331146979399180e-06  -7.0940686903414018e-06  -6.6653413632631348e-06  -6.1430807164672907e-06  -5.5233033774474883e-06  -4.8019625107785517e-06  -3.9749939080880656e-06  -3.0383643686032005e-06  -1.9880761350512205e-06  -8.2020618499829121e-07  4.6915367952064701e-07  1.8839256867209352e-06  3.4279342365450178e-06  5.1059779212812816e-06  6.9208398010029796e-06  8.8802738099275456e-06  1.1003187891232569e-05  1.3194578733617301e-05  1.5925540738774071e-05  2.3268600199775383e-05  1.9574333217408550e-05  1.6788059583281338e-05  1.4368921697828695e-05  1.2209940470656496e-05  1.0227856554997134e-05  8.3854275305886904e-06  6.6676222064943070e-06  5.0655249699845685e-06  3.5733356432355865e-06  2.1865771363568702e-06  9.0142049354522513e-07  -2.8561269004718243e-07  -1.3777727617480569e-06  -2.3781264101462979e-06  -3.2895702605280254e-06  -4.1148326927364396e-06  -4.8564711391887016e-06  -5.5168664368000161e-06  -6.0982110466493845e-06  -6.6024855661912442e-06  -7.0314174004327260e-06  -7.3864177316387443e-06  -7.6684984706036576e-06  -7.8781786199442104e-06  -8.0153965303792889e-06  -8.0794469435296393e-06  -8.0689575349036195e-06  -7.9819101612341052e-06  -7.8157020181202955e-06  -7.5672341732737343e-06  -7.2330134061191104e-06  -6.8092527319668431e-06  -6.2919634803468089e-06  -5.6770283359812809e-06  -4.9602622635485341e-06  -4.1374414280200047e-06  -3.2043333038234178e-06  -2.1566532435401372e-06  -9.9005601112948746e-07  3.0008078866858235e-07  1.7188740161270396e-06  3.2723810234171308e-06  4.9697748207254778e-06  6.8222304754189402e-06  8.8560752761028301e-06  1.1135424695283038e-05  1.3594737036047986e-05  1.6949792572429131e-05  2.4026408874801580e-05  2.0168317268581907e-05  1.7152914596226706e-05  1.4494121923132190e-05  1.2188340230236426e-05  1.0120799582345038e-05  8.2289372709575250e-06  6.4833332049806871e-06  4.8660656982040297e-06  3.3663760066419990e-06  1.9768650587707531e-06  6.9195064309661067e-07  -4.9294977514488489e-07  -1.5818075184291207e-06  -2.5781767204728176e-06  -3.4852945181134301e-06  -4.3061349597103553e-06  -5.0434418676230141e-06  -5.6997497766912949e-06  -6.2773932528664731e-06  -6.7784990632576116e-06  -7.2049526932952823e-06  -7.5583323049688113e-06  -7.8398103918346883e-06  -8.0500352724633415e-06  -8.1890164273139166e-06  -8.2560422014347552e-06  -8.2496514172323897e-06  -8.1676647423669744e-06  -8.0072658884425225e-06  -7.7651125421999222e-06  -7.4374561125173927e-06  -7.0202515735402697e-06  -6.5092482100396789e-06  -5.9000509485347844e-06  -5.1881575399904458e-06  -4.3689520497581758e-06  -3.4376772711201202e-06  -2.3893091359942154e-06  -1.2183985214141952e-06  8.1364533867221409e-08  1.5178189594845066e-06  3.1014326661241464e-06  4.8488547140227125e-06  6.7836196357591015e-06  8.9519068807443550e-06  1.1445073638033908e-05  1.4207746457058616e-05  1.7855504362411764e-05  2.4751941032356552e-05  2.0812294268155023e-05  1.7613527213902101e-05  1.4743863480420391e-05  1.2270083085111275e-05  1.0082699039453324e-05  8.1103404946189708e-06  6.3124520215338083e-06  4.6618703980035344e-06  3.1416443342158403e-06  1.7402003063249006e-06  4.4917665862602300e-07  -7.3788885137118811e-07  -1.8262578491049132e-06  -2.8203895106565132e-06  -3.7241666079737537e-06  -4.5410328238852921e-06  -5.2740844146811395e-06  -5.9261358684552751e-06  -6.4997656401241563e-06  -6.9973366645136568e-06  -7.4209796500200402e-06  -7.7725267394418380e-06  -8.0533922804982466e-06  -8.2644164182811549e-06  -8.4057082927519728e-06  -8.4765345063855106e-06  -8.4752861059056339e-06  -8.3995296195760923e-06  -8.2461217907066603e-06  -8.0113543585488654e-06  -7.6910974957970883e-06  -7.2809177086389224e-06  -6.7761600592216902e-06  -6.1719847679504335e-06  -5.4633644433232032e-06  -4.6450188481278081e-06  -3.7113058094746694e-06  -2.6559739187369488e-06  -1.4718306923138160e-06  -1.5002999235971742e-07  1.3209759981395581e-06  2.9571337076654969e-06  4.7829184898960813e-06  6.8324680988300215e-06  9.1636708435977014e-06  1.1872082171040005e-05  1.4878711961143558e-05  1.8684398119685919e-05  2.5441517491407100e-05  2.1450065661439694e-05  1.8113908415734539e-05  1.5071383857799981e-05  1.2436094855531179e-05  1.0117194153396068e-05  8.0461832046343148e-06  6.1774779202228375e-06  4.4774729148163836e-06  2.9236772851402328e-06  1.5001847963553523e-06  1.9539915919546258e-07  -9.9950297283741352e-07  -2.0915091148315992e-06  -3.0863446426468659e-06  -3.9888249643089122e-06  -4.8030867683167201e-06  -5.5327499449894237e-06  -6.1810410828014875e-06  -6.7508895231422628e-06  -7.2449903138486999e-06  -7.6658160646574883e-06  -8.0155548860859137e-06  -8.2959627133935667e-06  -8.5081491314836655e-06  -8.6523547099668799e-06  -8.7277961113547735e-06  -8.7326321277452681e-06  -8.6640527089516582e-06  -8.5184495198153601e-06  -8.2916110847746967e-06  -7.9788961797356021e-06  -7.5753564605039265e-06  -7.0757998956195718e-06  -6.4747892069678108e-06  -5.7665839964782847e-06  -4.9450039480246406e-06  -4.0032262535909244e-06  -2.9334184542826731e-06  -1.7262460891711950e-06  -3.6996394310246009e-07  1.1508597885452530e-06  2.8572027011887785e-06  4.7795643276749826e-06  6.9579954414965748e-06  9.4528829789236916e-06  1.2349845421978107e-05  1.5538713801482480e-05  1.9437827083165435e-05  2.6084670545820997e-05  2.2055997092967631e-05  1.8616102497657611e-05  1.5435062167572387e-05  1.2656801997688069e-05  1.0210328408617739e-05  8.0349830968276535e-06  6.0853849124884650e-06  4.3249384531085866e-06  2.7273009623141357e-06  1.2729284289159864e-06  -5.2863746913877023e-08  -1.2613581269349713e-06  -2.3614730744249269e-06  -3.3604221291532136e-06  -4.2641606529090508e-06  -5.0776952029454241e-06  -5.8053120860412337e-06  -6.4507628418638477e-06  -7.0174204617789640e-06  -7.5083995370044964e-06  -7.9266122626195049e-06  -8.2747185758011880e-06  -8.5549397400094383e-06  -8.7687546211804335e-06  -8.9165718219281589e-06  -8.9975099063937204e-06  -9.0093734224463932e-06  -8.9488145189426512e-06  -8.8115960580965088e-06  -8.5928599952927424e-06  -8.2873360294439050e-06  -7.8894611484724730e-06  -7.3934104299198158e-06  -6.7930431148553808e-06  -6.0817797083548124e-06  -5.2523902487741154e-06  -4.2967076445646475e-06  -3.2051668109751529e-06  -1.9662164673891956e-06  -5.6532970036960194e-07  1.0162693823977057e-06  2.8032740154430166e-06  4.8295583489151856e-06  7.1366169410239269e-06  9.7811411184403366e-06  1.2833938805235117e-05  1.6157542642103633e-05  2.0118349337628940e-05  2.6673606293658542e-05  2.2616643790844021e-05  1.9097471737717110e-05  1.5805932110802783e-05  1.2906063728701918e-05  1.0343593004599693e-05  8.0669351304071458e-06  6.0339302915574712e-06  4.2076778211371282e-06  2.5598195439356507e-06  1.0682504690060171e-06  -2.8425633069613557e-07  -1.5112304119681429e-06  -2.6234956839600530e-06  -3.6298168342676436e-06  -4.5373909191919764e-06  -5.3521999431073331e-06  -6.0792901591350246e-06  -6.7230135096776997e-06  -7.2872490142197792e-06  -7.7755956534204790e-06  -8.1914947857548769e-06  -8.5382079664306893e-06  -8.8185795995897255e-06  -9.0345922574043693e-06  -9.1868658862542634e-06  -9.2743389961119327e-06  -9.2942813135478732e-06  -9.2425928265334099e-06  -9.1142183121250418e-06  -8.9035170842138132e-06  -8.6045056998163737e-06  -8.2109570950659218e-06  -7.7163782824080600e-06  -7.1138889900701232e-06  -6.3960281767417112e-06  -5.5544744501393930e-06  -4.5796975334286722e-06  -3.4604487957343001e-06  -2.1831518715540355e-06  -7.3095548293716779e-07  9.1736646885464578e-07  2.7886680043853806e-06  4.9178193216515350e-06  7.3446608191546094e-06  1.0119350675511947e-05  1.3298002244306883e-05  1.6722561950821400e-05  2.0727061996592393e-05  2.7203547229393368e-05  2.3124604763093263e-05  1.9544266458301283e-05  1.6164646196714989e-05  1.3163463463346539e-05  1.0499498021236361e-05  8.1296752992795214e-06  6.0162712874727579e-06  4.1237431443651684e-06  2.4232012022929631e-06  8.9105453510452520e-07  -4.9177009530219832e-07  -1.7406578475952344e-06  -2.8681430540128760e-06  -3.8844710973160808e-06  -4.7980810013058567e-06  -5.6159613234212436e-06  -6.3439561499820862e-06  -6.9870475010031616e-06  -7.5496416112254598e-06  -8.0358509328796334e-06  -8.4497170287036372e-06  -8.7952475241777932e-06  -9.0761188327353075e-06  -9.2950078944362253e-06  -9.4527982045890193e-06  -9.5481061304789210e-06  -9.5773912724079638e-06  -9.5355140166096152e-06  -9.4163914878627076e-06  -9.2134941600355736e-06  -8.9201025861649226e-06  -8.5293506786802022e-06  -8.0341199474906687e-06  -7.4268341833765263e-06  -6.6991946043192345e-06  -5.8418467114542047e-06  -4.8439999562898174e-06  -3.6929167821514215e-06  -2.3733502965848658e-06  -8.6672628851800021e-07  8.4968593644615344e-07  2.8035494414011912e-06  5.0290396942465830e-06  7.5627024810517508e-06  1.0447515535935768e-05  1.3726996809534463e-05  1.7228446427213124e-05  2.1265257219159018e-05  2.7671863426879710e-05  2.3575717442220044e-05  1.9947936167254358e-05  1.6498239450363739e-05  1.3413833805346358e-05  1.0663400704599191e-05  8.2111415192796509e-06  6.0239140555615658e-06  4.0683555760869569e-06  2.3160338079785457e-06  7.4274227715884128e-07  -6.7177423601729292e-07  -1.9443060235661048e-06  -3.0888116729711033e-06  -4.1168571219537668e-06  -5.0380444782724410e-06  -5.8603376837614615e-06  -6.5903669812642946e-06  -7.2337307742539971e-06  -7.7953386958650290e-06  -8.2797980973515967e-06  -8.6917896439569949e-06  -9.0362244750076529e-06  -9.3178975152219164e-06  -9.5404651083861196e-06  -9.7051378364643063e-06  -9.8099586454224864e-06  -9.8501474948535251e-06  -9.8191427891881851e-06  -9.7096250550879204e-06  -9.5141391170612435e-06  -9.2253035721721987e-06  -8.8357344664439175e-06  -8.3378149515287219e-06  -7.7233909177115318e-06  -6.9834402795660433e-06  -6.1077068642881330e-06  -5.0843201106490069e-06  -3.8993240461075667e-06  -2.5362097677934517e-06  -9.7527372733113492e-07  8.0691612932200139e-07  2.8378552415140517e-06  5.1500498244361230e-06  7.7761752417747841e-06  1.0752530712546526e-05  1.4112546320894121e-05  1.7673350130904099e-05  2.1734717674023666e-05  2.8077207762775123e-05  2.3967625124556316e-05  2.0303067397014983e-05  1.6797936732303997e-05  1.3646106968338858e-05  1.0823667350546023e-05  8.3007347160330556e-06  6.0483563945430163e-06  4.0355960357786038e-06  2.2350254055569813e-06  6.2242889925812945e-07  -8.2308936717872954e-07  -2.1192989798705584e-06  -3.2812717773468175e-06  -4.3216865557342438e-06  -5.2511781074228169e-06  -6.0786104046478444e-06  -6.8113526718866610e-06  -7.4555752977623939e-06  -8.0166277884767136e-06  -8.4995377115288906e-06  -8.9096121502527449e-06  -9.2528221932823297e-06  -9.5354831572267560e-06  -9.7626771184262540e-06  -9.9360180014054906e-06  -1.0052524691912197e-05  -1.0105501985179289e-05  -1.0086480313113950e-05  -9.9867520101079163e-06  -9.7980341639855969e-06  -9.5124955377228242e-06  -9.1224636432026745e-06  -8.6200259462652276e-06  -7.9966211101772937e-06  -7.2426591364399033e-06  -6.3471490532937584e-06  -5.2973494814955002e-06  -4.0783684083211055e-06  -2.6728167797856125e-06  -1.0603546949550847e-06  7.8256828296337987e-07  2.8826903698690406e-06  5.2704380282215320e-06  7.9746947410465609e-06  1.1026052783421050e-05  1.4450147309511713e-05  1.8057114907869102e-05  2.2137421640063093e-05  2.8418944611651951e-05  2.4298990469317434e-05  2.0606181394996075e-05  1.7057739404626183e-05  1.3852257492846390e-05  1.0971305097933538e-05  8.3896450068833013e-06  6.0818911276080899e-06  4.0194286515986235e-06  2.1760483768131310e-06  5.2788732006817632e-07  -9.4619924042212738e-07  -2.2646037143006793e-06  -3.4432169811954816e-06  -4.4956067265897914e-06  -5.4332807133220419e-06  -6.2658981493866193e-06  -7.0014995611115680e-06  -7.6467715111432162e-06  -8.2074185030687980e-06  -8.6887622530978085e-06  -9.0966454275057244e-06  -9.4382023053748874e-06  -9.7218354928110563e-06  -9.9547747191989370e-06  -1.0139117463535969e-05  -1.0270051129026600e-05  -1.0337921135060708e-05  -1.0331803629384253e-05  -1.0241632141620064e-05  -1.0058619708184888e-05  -9.7748655937640053e-06  -9.3827332336215000e-06  -8.8742588443516111e-06  -8.2406583440626138e-06  -7.4719314515923024e-06  -6.5565160885682547e-06  -5.4809969374122381e-06  -4.2297950253049257e-06  -2.7849495651732567e-06  -1.1258397816624298e-06  7.7084512908032827e-07  2.9308171785613493e-06  5.3823984527460914e-06  8.1511058575770752e-06  1.1262908011535762e-05  1.4737555078571919e-05  1.8380405622225126e-05  2.2475380228448252e-05  2.8696814000855904e-05  2.4569058496672019e-05  2.0855014213504738e-05  1.7273518448240870e-05  1.4026493245232909e-05  1.1099494215082659e-05  8.4708150979200814e-06  6.1179423510882493e-06  4.0142817227047876e-06  2.1348316708630366e-06  4.5624765388078470e-07  -1.0426131752251513e-06  -2.3804936139673408e-06  -3.5738466257573394e-06  -4.6369074846831431e-06  -5.5818799385412911e-06  -6.4190896802578054e-06  -7.1571659199131595e-06  -7.8032587676249218e-06  -8.3633558227242321e-06  -8.8429350171397815e-06  -9.2481811059976034e-06  -9.5873068157620835e-06  -9.8715925283836658e-06  -1.0111574284956663e-05  -1.0309872234763040e-05  -1.0458450437767749e-05  -1.0543167946879240e-05  -1.0550212871409595e-05  -1.0468582943810608e-05  -1.0289617814059800e-05  -1.0005875346180829e-05  -9.6101117201246721e-06  -9.0945345168814362e-06  -8.4502836247601139e-06  -7.6670699877257551e-06  -6.7328909185303458e-06  -5.6338160389467085e-06  -4.3537726444294686e-06  -2.8744476032470638e-06  -1.1751581917235879e-06  7.6699977273281981e-07  2.9766782855457104e-06  5.4803078661477346e-06  8.3006189202473961e-06  1.1459990831788997e-05  1.4973826558063664e-05  1.8644244253302398e-05  2.2750488247454942e-05  2.8910738245847550e-05  2.4777404918885839e-05  2.1048081896099402e-05  1.7442433892599929e-05  1.4164676768654913e-05  1.1203172080818896e-05  8.5387811468884066e-06  6.1511705875900421e-06  4.0153648699448738e-06  2.1074132045538562e-06  4.0451030849326510e-07  -1.1143526442617061e-06  -2.4680783101922210e-06  -3.6734703657381795e-06  -4.7452241639073946e-06  -5.6960515869607530e-06  -6.5367901661278968e-06  -7.2765486124545131e-06  -7.9228809757805884e-06  -8.4820285484753118e-06  -8.9595612927341357e-06  -9.3617464531949729e-06  -9.6973892774480132e-06  -9.9816563696088669e-06  -1.0230042988949635e-05  -1.0445615376258237e-05  -1.0614994555652468e-05  -1.0717566535470428e-05  -1.0736682053244412e-05  -1.0661465778243164e-05  -1.0484290254929702e-05  -1.0198710041605981e-05  -9.7981393878077637e-06  -9.2750739485902611e-06  -8.6206406267941331e-06  -7.8243242783439538e-06  -6.8737682656199516e-06  -5.7546430787298770e-06  -4.4505193194290547e-06  -2.9428695760921063e-06  -1.2110545254470335e-06  7.6740033393641779e-07  3.0162104120509707e-06  5.5602603271760538e-06  8.4201226605131204e-06  1.1615518536624661e-05  1.5158738619032471e-05  1.8849737638693638e-05  2.2964431220956643e-05  2.9060710367445354e-05  2.4923788188573702e-05  2.1184416406889312e-05  1.7562565044639271e-05  1.4263928878800212e-05  1.1278711506809421e-05  8.5895015114326091e-06  6.1774810165733739e-06  4.0188441971050199e-06  2.0904444709960452e-06  3.6993482294032002e-07  -1.1635204012519059e-06  -2.5288662173834533e-06  -3.7430948368240450e-06  -4.8211788790114941e-06  -5.7761518096621136e-06  -6.6191869474582891e-06  -7.3597213486151881e-06  -8.0056063566363223e-06  -8.5633166526391826e-06  -9.0385787268641289e-06  -9.4376005688797932e-06  -9.7688884888045394e-06  -1.0052383829742215e-05  -1.0309971636167549e-05  -1.0545106545259357e-05  -1.0736979723065628e-05  -1.0856276970107386e-05  -1.0884458218388969e-05  -1.0812528397529722e-05  -1.0634742036246491e-05  -1.0345926909383325e-05  -9.9401767426327140e-06  -9.4102318823786410e-06  -8.7471792110337229e-06  -7.9402940505490521e-06  -6.9769256180701560e-06  -5.8424348106494515e-06  -4.5201336996495664e-06  -2.9913594733726955e-06  -1.2355401260707539e-06  7.6944362849771187e-07  3.0465906919899702e-06  5.6196521180486010e-06  8.5076693902513824e-06  1.1728530212498469e-05  1.5292423066395083e-05  1.8997909144845756e-05  2.3118617332013845e-05  2.9146728266135509e-05  2.5008061218518161e-05  2.1263406289345527e-05  1.7632679575833100e-05  1.4322368618828715e-05  1.1323693676258427e-05  8.6202174189601181e-06  6.1940031131566842e-06  4.0219464696348811e-06  2.0814065130723564e-06  3.5034670986756385e-07  -1.1919238584406040e-06  -2.5643351651493405e-06  -3.7839547166613038e-06  -4.8658864203671868e-06  -5.8233231242262487e-06  -6.6676057756318076e-06  -7.4083334571766788e-06  -8.0535027521499095e-06  -8.6097356723534666e-06  -9.0829501108735508e-06  -9.4793280391995082e-06  -9.8062052305689037e-06  -1.0088751567247045e-05  -1.0354144201177332e-05  -1.0606164615993157e-05  -1.0818256750162306e-05  -1.0950357923729407e-05  -1.0983219551030735e-05  -1.0911621858335860e-05  -1.0731837658780917e-05  -1.0439707010088791e-05  -1.0029754825210976e-05  -9.4948170451407549e-06  -8.8258914040441925e-06  -8.0120702127515053e-06  -7.0404821044882714e-06  -5.8962715740087441e-06  -4.5625770038280974e-06  -3.0206466019659588e-06  -1.2499501727901591e-06  7.7140968483429528e-07  3.0659896566415530e-06  5.6568488602555113e-06  8.5621053154929584e-06  1.1798552771708436e-05  1.5375134454590441e-05  1.9089591082386985e-05  2.3214129780398473e-05  2.9168754747219020e-05  2.5030118686584038e-05  2.1284703569104007e-05  1.7652096148882929e-05  1.4338953683619647e-05  1.1336762567941301e-05  8.6293572789321201e-06  6.1990700630498081e-06  4.0230250103332517e-06  2.0787628737214495e-06  3.4437320190712244e-07  -1.2007592358481689e-06  -2.5755320756162818e-06  -3.7970128859350577e-06  -4.8803278107109456e-06  -5.8387046720883020e-06  -6.6835244897610674e-06  -7.4244262386274957e-06  -8.0694397203699199e-06  -8.6252292719964411e-06  -9.0977109834649761e-06  -9.4930175963674195e-06  -9.8172812702250398e-06  -1.0097284941086132e-05  -1.0365270245197766e-05  -1.062309516872