<?xml version="1.0"?>
<VTKFile type="UnstructuredGrid"  version="0.1"  >
<UnstructuredGrid>
<Piece  NumberOfPoints="1617" NumberOfCells="3072">
<Points>
<DataArray  type="Float64"  NumberOfComponents="3"  format="ascii">0 0 0  0.03125 0 0  0.0625 0 0  0.09375 0 0  0.125 0 0  0.15625 0 0  0.1875 0 0  0.21875 0 0  0.25 0 0  0.28125 0 0  0.3125 0 0  0.34375 0 0  0.375 0 0  0.40625 0 0  0.4375 0 0  0.46875 0 0  0.5 0 0  0.53125 0 0  0.5625 0 0  0.59375 0 0  0.625 0 0  0.65625 0 0  0.6875 0 0  0.71875 0 0  0.75 0 0  0.78125 0 0  0.8125 0 0  0.84375 0 0  0.875 0 0  0.90625 0 0  0.9375 0 0  0.96875 0 0  1 0 0  1.03125 0 0  1.0625 0 0  1.09375 0 0  1.125 0 0  1.15625 0 0  1.1875 0 0  1.21875 0 0  1.25 0 0  1.28125 0 0  1.3125 0 0  1.34375 0 0  1.375 0 0  1.40625 0 0  1.4375 0 0  1.46875 0 0  1.5 0 0  0 0.03125 0  0.03125 0.03125 0  0.0625 0.03125 0  0.09375 0.03125 0  0.125 0.03125 0  0.15625 0.03125 0  0.1875 0.03125 0  0.21875 0.03125 0  0.25 0.03125 0  0.28125 0.03125 0  0.3125 0.03125 0  0.34375 0.03125 0  0.375 0.03125 0  0.40625 0.03125 0  0.4375 0.03125 0  0.46875 0.03125 0  0.5 0.03125 0  0.53125 0.03125 0  0.5625 0.03125 0  0.59375 0.03125 0  0.625 0.03125 0  0.65625 0.03125 0  0.6875 0.03125 0  0.71875 0.03125 0  0.75 0.03125 0  0.78125 0.03125 0  0.8125 0.03125 0  0.84375 0.03125 0  0.875 0.03125 0  0.90625 0.03125 0  0.9375 0.03125 0  0.96875 0.03125 0  1 0.03125 0  1.03125 0.03125 0  1.0625 0.03125 0  1.09375 0.03125 0  1.125 0.03125 0  1.15625 0.03125 0  1.1875 0.03125 0  1.21875 0.03125 0  1.25 0.03125 0  1.28125 0.03125 0  1.3125 0.03125 0  1.34375 0.03125 0  1.375 0.03125 0  1.40625 0.03125 0  1.4375 0.03125 0  1.46875 0.03125 0  1.5 0.03125 0  0 0.0625 0  0.03125 0.0625 0  0.0625 0.0625 0  0.09375 0.0625 0  0.125 0.0625 0  0.15625 0.0625 0  0.1875 0.0625 0  0.21875 0.0625 0  0.25 0.0625 0  0.28125 0.0625 0  0.3125 0.0625 0  0.34375 0.0625 0  0.375 0.0625 0  0.40625 0.0625 0  0.4375 0.0625 0  0.46875 0.0625 0  0.5 0.0625 0  0.53125 0.0625 0  0.5625 0.0625 0  0.59375 0.0625 0  0.625 0.0625 0  0.65625 0.0625 0  0.6875 0.0625 0  0.71875 0.0625 0  0.75 0.0625 0  0.78125 0.0625 0  0.8125 0.0625 0  0.84375 0.0625 0  0.875 0.0625 0  0.90625 0.0625 0  0.9375 0.0625 0  0.96875 0.0625 0  1 0.0625 0  1.03125 0.0625 0  1.0625 0.0625 0  1.09375 0.0625 0  1.125 0.0625 0  1.15625 0.0625 0  1.1875 0.0625 0  1.21875 0.0625 0  1.25 0.0625 0  1.28125 0.0625 0  1.3125 0.0625 0  1.34375 0.0625 0  1.375 0.0625 0  1.40625 0.0625 0  1.4375 0.0625 0  1.46875 0.0625 0  1.5 0.0625 0  0 0.09375 0  0.03125 0.09375 0  0.0625 0.09375 0  0.09375 0.09375 0  0.125 0.09375 0  0.15625 0.09375 0  0.1875 0.09375 0  0.21875 0.09375 0  0.25 0.09375 0  0.28125 0.09375 0  0.3125 0.09375 0  0.34375 0.09375 0  0.375 0.09375 0  0.40625 0.09375 0  0.4375 0.09375 0  0.46875 0.09375 0  0.5 0.09375 0  0.53125 0.09375 0  0.5625 0.09375 0  0.59375 0.09375 0  0.625 0.09375 0  0.65625 0.09375 0  0.6875 0.09375 0  0.71875 0.09375 0  0.75 0.09375 0  0.78125 0.09375 0  0.8125 0.09375 0  0.84375 0.09375 0  0.875 0.09375 0  0.90625 0.09375 0  0.9375 0.09375 0  0.96875 0.09375 0  1 0.09375 0  1.03125 0.09375 0  1.0625 0.09375 0  1.09375 0.09375 0  1.125 0.09375 0  1.15625 0.09375 0  1.1875 0.09375 0  1.21875 0.09375 0  1.25 0.09375 0  1.28125 0.09375 0  1.3125 0.09375 0  1.34375 0.09375 0  1.375 0.09375 0  1.40625 0.09375 0  1.4375 0.09375 0  1.46875 0.09375 0  1.5 0.09375 0  0 0.125 0  0.03125 0.125 0  0.0625 0.125 0  0.09375 0.125 0  0.125 0.125 0  0.15625 0.125 0  0.1875 0.125 0  0.21875 0.125 0  0.25 0.125 0  0.28125 0.125 0  0.3125 0.125 0  0.34375 0.125 0  0.375 0.125 0  0.40625 0.125 0  0.4375 0.125 0  0.46875 0.125 0  0.5 0.125 0  0.53125 0.125 0  0.5625 0.125 0  0.59375 0.125 0  0.625 0.125 0  0.65625 0.125 0  0.6875 0.125 0  0.71875 0.125 0  0.75 0.125 0  0.78125 0.125 0  0.8125 0.125 0  0.84375 0.125 0  0.875 0.125 0  0.90625 0.125 0  0.9375 0.125 0  0.96875 0.125 0  1 0.125 0  1.03125 0.125 0  1.0625 0.125 0  1.09375 0.125 0  1.125 0.125 0  1.15625 0.125 0  1.1875 0.125 0  1.21875 0.125 0  1.25 0.125 0  1.28125 0.125 0  1.3125 0.125 0  1.34375 0.125 0  1.375 0.125 0  1.40625 0.125 0  1.4375 0.125 0  1.46875 0.125 0  1.5 0.125 0  0 0.15625 0  0.03125 0.15625 0  0.0625 0.15625 0  0.09375 0.15625 0  0.125 0.15625 0  0.15625 0.15625 0  0.1875 0.15625 0  0.21875 0.15625 0  0.25 0.15625 0  0.28125 0.15625 0  0.3125 0.15625 0  0.34375 0.15625 0  0.375 0.15625 0  0.40625 0.15625 0  0.4375 0.15625 0  0.46875 0.15625 0  0.5 0.15625 0  0.53125 0.15625 0  0.5625 0.15625 0  0.59375 0.15625 0  0.625 0.15625 0  0.65625 0.15625 0  0.6875 0.15625 0  0.71875 0.15625 0  0.75 0.15625 0  0.78125 0.15625 0  0.8125 0.15625 0  0.84375 0.15625 0  0.875 0.15625 0  0.90625 0.15625 0  0.9375 0.15625 0  0.96875 0.15625 0  1 0.15625 0  1.03125 0.15625 0  1.0625 0.15625 0  1.09375 0.15625 0  1.125 0.15625 0  1.15625 0.15625 0  1.1875 0.15625 0  1.21875 0.15625 0  1.25 0.15625 0  1.28125 0.15625 0  1.3125 0.15625 0  1.34375 0.15625 0  1.375 0.15625 0  1.40625 0.15625 0  1.4375 0.15625 0  1.46875 0.15625 0  1.5 0.15625 0  0 0.1875 0  0.03125 0.1875 0  0.0625 0.1875 0  0.09375 0.1875 0  0.125 0.1875 0  0.15625 0.1875 0  0.1875 0.1875 0  0.21875 0.1875 0  0.25 0.1875 0  0.28125 0.1875 0  0.3125 0.1875 0  0.34375 0.1875 0  0.375 0.1875 0  0.40625 0.1875 0  0.4375 0.1875 0  0.46875 0.1875 0  0.5 0.1875 0  0.53125 0.1875 0  0.5625 0.1875 0  0.59375 0.1875 0  0.625 0.1875 0  0.65625 0.1875 0  0.6875 0.1875 0  0.71875 0.1875 0  0.75 0.1875 0  0.78125 0.1875 0  0.8125 0.1875 0  0.84375 0.1875 0  0.875 0.1875 0  0.90625 0.1875 0  0.9375 0.1875 0  0.96875 0.1875 0  1 0.1875 0  1.03125 0.1875 0  1.0625 0.1875 0  1.09375 0.1875 0  1.125 0.1875 0  1.15625 0.1875 0  1.1875 0.1875 0  1.21875 0.1875 0  1.25 0.1875 0  1.28125 0.1875 0  1.3125 0.1875 0  1.34375 0.1875 0  1.375 0.1875 0  1.40625 0.1875 0  1.4375 0.1875 0  1.46875 0.1875 0  1.5 0.1875 0  0 0.21875 0  0.03125 0.21875 0  0.0625 0.21875 0  0.09375 0.21875 0  0.125 0.21875 0  0.15625 0.21875 0  0.1875 0.21875 0  0.21875 0.21875 0  0.25 0.21875 0  0.28125 0.21875 0  0.3125 0.21875 0  0.34375 0.21875 0  0.375 0.21875 0  0.40625 0.21875 0  0.4375 0.21875 0  0.46875 0.21875 0  0.5 0.21875 0  0.53125 0.21875 0  0.5625 0.21875 0  0.59375 0.21875 0  0.625 0.21875 0  0.65625 0.21875 0  0.6875 0.21875 0  0.71875 0.21875 0  0.75 0.21875 0  0.78125 0.21875 0  0.8125 0.21875 0  0.84375 0.21875 0  0.875 0.21875 0  0.90625 0.21875 0  0.9375 0.21875 0  0.96875 0.21875 0  1 0.21875 0  1.03125 0.21875 0  1.0625 0.21875 0  1.09375 0.21875 0  1.125 0.21875 0  1.15625 0.21875 0  1.1875 0.21875 0  1.21875 0.21875 0  1.25 0.21875 0  1.28125 0.21875 0  1.3125 0.21875 0  1.34375 0.21875 0  1.375 0.21875 0  1.40625 0.21875 0  1.4375 0.21875 0  1.46875 0.21875 0  1.5 0.21875 0  0 0.25 0  0.03125 0.25 0  0.0625 0.25 0  0.09375 0.25 0  0.125 0.25 0  0.15625 0.25 0  0.1875 0.25 0  0.21875 0.25 0  0.25 0.25 0  0.28125 0.25 0  0.3125 0.25 0  0.34375 0.25 0  0.375 0.25 0  0.40625 0.25 0  0.4375 0.25 0  0.46875 0.25 0  0.5 0.25 0  0.53125 0.25 0  0.5625 0.25 0  0.59375 0.25 0  0.625 0.25 0  0.65625 0.25 0  0.6875 0.25 0  0.71875 0.25 0  0.75 0.25 0  0.78125 0.25 0  0.8125 0.25 0  0.84375 0.25 0  0.875 0.25 0  0.90625 0.25 0  0.9375 0.25 0  0.96875 0.25 0  1 0.25 0  1.03125 0.25 0  1.0625 0.25 0  1.09375 0.25 0  1.125 0.25 0  1.15625 0.25 0  1.1875 0.25 0  1.21875 0.25 0  1.25 0.25 0  1.28125 0.25 0  1.3125 0.25 0  1.34375 0.25 0  1.375 0.25 0  1.40625 0.25 0  1.4375 0.25 0  1.46875 0.25 0  1.5 0.25 0  0 0.28125 0  0.03125 0.28125 0  0.0625 0.28125 0  0.09375 0.28125 0  0.125 0.28125 0  0.15625 0.28125 0  0.1875 0.28125 0  0.21875 0.28125 0  0.25 0.28125 0  0.28125 0.28125 0  0.3125 0.28125 0  0.34375 0.28125 0  0.375 0.28125 0  0.40625 0.28125 0  0.4375 0.28125 0  0.46875 0.28125 0  0.5 0.28125 0  0.53125 0.28125 0  0.5625 0.28125 0  0.59375 0.28125 0  0.625 0.28125 0  0.65625 0.28125 0  0.6875 0.28125 0  0.71875 0.28125 0  0.75 0.28125 0  0.78125 0.28125 0  0.8125 0.28125 0  0.84375 0.28125 0  0.875 0.28125 0  0.90625 0.28125 0  0.9375 0.28125 0  0.96875 0.28125 0  1 0.28125 0  1.03125 0.28125 0  1.0625 0.28125 0  1.09375 0.28125 0  1.125 0.28125 0  1.15625 0.28125 0  1.1875 0.28125 0  1.21875 0.28125 0  1.25 0.28125 0  1.28125 0.28125 0  1.3125 0.28125 0  1.34375 0.28125 0  1.375 0.28125 0  1.40625 0.28125 0  1.4375 0.28125 0  1.46875 0.28125 0  1.5 0.28125 0  0 0.3125 0  0.03125 0.3125 0  0.0625 0.3125 0  0.09375 0.3125 0  0.125 0.3125 0  0.15625 0.3125 0  0.1875 0.3125 0  0.21875 0.3125 0  0.25 0.3125 0  0.28125 0.3125 0  0.3125 0.3125 0  0.34375 0.3125 0  0.375 0.3125 0  0.40625 0.3125 0  0.4375 0.3125 0  0.46875 0.3125 0  0.5 0.3125 0  0.53125 0.3125 0  0.5625 0.3125 0  0.59375 0.3125 0  0.625 0.3125 0  0.65625 0.3125 0  0.6875 0.3125 0  0.71875 0.3125 0  0.75 0.3125 0  0.78125 0.3125 0  0.8125 0.3125 0  0.84375 0.3125 0  0.875 0.3125 0  0.90625 0.3125 0  0.9375 0.3125 0  0.96875 0.3125 0  1 0.3125 0  1.03125 0.3125 0  1.0625 0.3125 0  1.09375 0.3125 0  1.125 0.3125 0  1.15625 0.3125 0  1.1875 0.3125 0  1.21875 0.3125 0  1.25 0.3125 0  1.28125 0.3125 0  1.3125 0.3125 0  1.34375 0.3125 0  1.375 0.3125 0  1.40625 0.3125 0  1.4375 0.3125 0  1.46875 0.3125 0  1.5 0.3125 0  0 0.34375 0  0.03125 0.34375 0  0.0625 0.34375 0  0.09375 0.34375 0  0.125 0.34375 0  0.15625 0.34375 0  0.1875 0.34375 0  0.21875 0.34375 0  0.25 0.34375 0  0.28125 0.34375 0  0.3125 0.34375 0  0.34375 0.34375 0  0.375 0.34375 0  0.40625 0.34375 0  0.4375 0.34375 0  0.46875 0.34375 0  0.5 0.34375 0  0.53125 0.34375 0  0.5625 0.34375 0  0.59375 0.34375 0  0.625 0.34375 0  0.65625 0.34375 0  0.6875 0.34375 0  0.71875 0.34375 0  0.75 0.34375 0  0.78125 0.34375 0  0.8125 0.34375 0  0.84375 0.34375 0  0.875 0.34375 0  0.90625 0.34375 0  0.9375 0.34375 0  0.96875 0.34375 0  1 0.34375 0  1.03125 0.34375 0  1.0625 0.34375 0  1.09375 0.34375 0  1.125 0.34375 0  1.15625 0.34375 0  1.1875 0.34375 0  1.21875 0.34375 0  1.25 0.34375 0  1.28125 0.34375 0  1.3125 0.34375 0  1.34375 0.34375 0  1.375 0.34375 0  1
[...]
<PointData  Scalars="f_33"> 
<DataArray  type="Float64"  Name="f_33"  format="ascii">3.4083279269747158e-05  3.2303495842423976e-05  3.1327675928272460e-05  3.0145362769232124e-05  2.8847557805520293e-05  2.7471068546757736e-05  2.6075389827203893e-05  2.4693778952176357e-05  2.3341929897042081e-05  2.2026393968903564e-05  2.0749651734976094e-05  1.9512555503197592e-05  1.8315304636566356e-05  1.7157782807313473e-05  1.6039647647688771e-05  1.4960330708378870e-05  1.3919005088449231e-05  1.2914547844550241e-05  1.1945518817125846e-05  1.1010178812196584e-05  1.0106570008166801e-05  9.2326759605132636e-06  8.3866658207671092e-06  7.5672082013672563e-06  6.7738186801054897e-06  6.0071881926870049e-06  5.2694346384869139e-06  4.5642305007837049e-06  3.8967827455474468e-06  3.2736701807336461e-06  2.7025687891727392e-06  2.1919109452510448e-06  1.7505274300596644e-06  1.3873152018906287e-06  1.1109595195983460e-06  9.2973045792588030e-07  8.5134931606766477e-07  8.8293843055357787e-07  1.0309950811166426e-06  1.3013868092934849e-06  1.6991874106679969e-06  2.2273108786016743e-06  2.8855068921345730e-06  3.6550029675671792e-06  4.5145652457325894e-06  5.3161618987700873e-06  6.1997408811384819e-06  6.5944975007525981e-06  7.9081196769233866e-06  3.4954075799589808e-05  3.2382033964457138e-05  3.1419332921629431e-05  3.0182031597471211e-05  2.8861488642612389e-05  2.7456988737938690e-05  2.6043332165576472e-05  2.4652778622870288e-05  2.3297738581041565e-05  2.1982023525947887e-05  2.0706504995843314e-05  1.9471226057725880e-05  1.8276013833174843e-05  1.7120586054568297e-05  1.6004525708467943e-05  1.4927229297868780e-05  1.3887849122585346e-05  1.2885239226231397e-05  1.1917920273438035e-05  1.0984085630068041e-05  1.0081673697858968e-05  9.2085272188689282e-06  8.3626470308411561e-06  7.5425263291924487e-06  6.7475264943183353e-06  5.9782352911285127e-06  5.2367417197953398e-06  4.5267737413867747e-06  3.8536726334579841e-06  3.2242114458616929e-06  2.6462938145774158e-06  2.1285858735287994e-06  1.6801358607093514e-06  1.3100278170690482e-06  1.0270991520121441e-06  8.3974162256178633e-07  7.5578261936275052e-07  7.8245709565928347e-07  9.2643960852544909e-07  1.1938885140952389e-06  1.5905984704201362e-06  2.1205713481543518e-06  2.7869029816224143e-06  3.5729017505803911e-06  4.4699194995372686e-06  5.3058148690811141e-06  6.2705321918980700e-06  6.5982215486775091e-06  8.6040684490154487e-06  3.5766483569017290e-05  3.2833458298793713e-05  3.1811716467612680e-05  3.0353217543749232e-05  2.8940780150881279e-05  2.7453127272791071e-05  2.5988035326709259e-05  2.4567229862153610e-05  2.3196107195734805e-05  2.1872846587495629e-05  2.0594763613522688e-05  1.9359793352161488e-05  1.8166571077195632e-05  1.7014140108315266e-05  1.5901697145432253e-05  1.4828411794173723e-05  1.3793291116428918e-05  1.2795070052995131e-05  1.1832130316813633e-05  1.0902467878901114e-05  1.0003738759310557e-05  9.1334121085571613e-06  8.2890457370205600e-06  7.4686721285418562e-06  6.6712481250725422e-06  5.8970911895059090e-06  5.1482141196163776e-06  4.4284866542996922e-06  3.7435920225121103e-06  3.1007937443418712e-06  2.5085657184032482e-06  1.9761569265422659e-06  1.5131597990271776e-06  1.1291367938955627e-06  8.3333672502110663e-07  6.3452109435583779e-07  5.4089499860760643e-07  5.6016648945240711e-07  6.9970718902619871e-07  9.6682422797278315e-07  1.3692605741765480e-06  1.9141295766115211e-06  2.6096945610708092e-06  3.4440005501027892e-06  4.4189261270920053e-06  5.3431955966667450e-06  6.4718564982858450e-06  6.9216200341085256e-06  9.4833058129416785e-06  3.6458853200375383e-05  3.3436356384353773e-05  3.2382401603799128e-05  3.0702169086121723e-05  2.9164750639505144e-05  2.7555130482497883e-05  2.6006790598333854e-05  2.4528425400868394e-05  2.3119873512326419e-05  2.1773057508235759e-05  2.0480723346078511e-05  1.9237643564330654e-05  1.8040388197028129e-05  1.6886672570191351e-05  1.5774847680264851e-05  1.4703542782408705e-05  1.3671405911396968e-05  1.2676897628064280e-05  1.1718127047197956e-05  1.0792747714884363e-05  9.8979506706739476e-06  9.0305982995284946e-06  8.1875291794978877e-06  7.3660277755055592e-06  6.5643995947647854e-06  5.7825420456583073e-06  5.0223806346999273e-06  4.2880659633132421e-06  3.5858909927503816e-06  2.9239615115535624e-06  2.3117059065099209e-06  1.7593292922130934e-06  1.2773048725911362e-06  8.7596779844550379e-07  5.6524357068390497e-07  3.5452697640874186e-07  2.5270370408179884e-07  2.6834006903027975e-07  4.1002693999967409e-07  6.8688777779080877e-07  1.1093850026823896e-06  1.6884303387521156e-06  2.4372326911507958e-06  3.3485475179569123e-06  4.4284129793221660e-06  5.4831305527454618e-06  6.7790720739796824e-06  7.4167155177594234e-06  1.0195330592550209e-05  3.7177248142174485e-05  3.4126758377106121e-05  3.3008090106800351e-05  3.1169643752521822e-05  2.9501651860921874e-05  2.7759219146770290e-05  2.6110369309929967e-05  2.4554557721384709e-05  2.3090291994833011e-05  2.1704425199051669e-05  2.0385418602719825e-05  1.9124596933395653e-05  1.7915978879722252e-05  1.6755467993158591e-05  1.5640163540636362e-05  1.4567841972838443e-05  1.3536562134780090e-05  1.2544338929264995e-05  1.1588866461957733e-05  1.0667308422763885e-05  9.7762060413917247e-06  8.9115719026437419e-06  8.0692277879892632e-06  7.2453954042359808e-06  6.4374640709115202e-06  5.6447712441293403e-06  4.8691918618319675e-06  4.1153760028004423e-06  3.3905849461687218e-06  2.7041960068978393e-06  2.0670222721832490e-06  1.4906065780545300e-06  9.8661470770845507e-07  5.6640139762993171e-07  2.4077353608274667e-07  1.9952895550518618e-08  -8.6281657261782498e-08  -6.8254210508058373e-08  8.4123906675617906e-08  3.8204382926884526e-07  8.3872773217562839e-07  1.4685164264083237e-06  2.2882267918814062e-06  3.2934753321335413e-06  4.4907866747417662e-06  5.6837870359780929e-06  7.1336190526578234e-06  7.9245670236005114e-06  1.0809234389864394e-05  3.7908452937155342e-05  3.4839283277435732e-05  3.3656865415622822e-05  3.1702657611848930e-05  2.9912204528063659e-05  2.8044037924342785e-05  2.6289794797366869e-05  2.4646602439113573e-05  2.3114956955113665e-05  2.1678484715600663e-05  2.0322502209270788e-05  1.9035277347596752e-05  1.7808268280610126e-05  1.6635386432380407e-05  1.5512246974884987e-05  1.4435556124223691e-05  1.3402606340891577e-05  1.2410831128773096e-05  1.1457397953045898e-05  1.0538860730373148e-05  9.6509421790270585e-06  8.7885542028930951e-06  7.9461651329979077e-06  7.1185583629826559e-06  6.3018894083741381e-06  5.4947885946045869e-06  4.6991765882544259e-06  3.9205373379959907e-06  3.1675936030071605e-06  2.4515336326887413e-06  1.7850418575182897e-06  1.1813752341783453e-06  6.5364613014167497e-07  2.1438120632107528e-07  -1.2464479481061065e-07  -3.5232789291533340e-07  -4.5795119165906043e-07  -4.3069923624108690e-07  -2.5901196917630661e-07  7.0190636405083448e-08  5.7240780970428722e-07  1.2644214842413956e-06  2.1650317350095758e-06  3.2704885913334388e-06  4.5851229157080287e-06  5.9071441224740830e-06  7.4862741379225158e-06  8.3906862230364356e-06  1.1333742284937209e-05  3.8626821931789671e-05  3.5541426897741370e-05  3.4305080016425443e-05  3.2260473700285384e-05  3.0363139600887288e-05  2.8383057152785436e-05  2.6526843917393381e-05  2.4794823102687046e-05  2.3190835295186643e-05  2.1697182296376331e-05  2.0297395012396147e-05  1.8977407047595166e-05  1.7726449654306434e-05  1.6536529194730184e-05  1.5401730829397329e-05  1.4317596764080015e-05  1.3280559202644244e-05  1.2287398470331522e-05  1.1334701843650305e-05  1.0418347228793265e-05  9.5331069163346368e-06  8.6725390527504189e-06  7.8293637252933016e-06  6.9964475752694852e-06  6.1682974870231941e-06  5.3426661873289791e-06  4.5217053223018655e-06  3.7122451442781555e-06  2.9251603132334964e-06  2.1741338871884113e-06  1.4742606452945183e-06  8.4084787019730178e-07  2.8859976511615360e-07  -1.6878060540591241e-07  -5.1862963552038192e-07  -7.4908077729722746e-07  -8.4862301618400803e-07  -8.0548571123853941e-07  -6.0691445209088026e-07  -2.3839720399618214e-07  3.1709398070701636e-07  1.0776504080975549e-06  2.0625187152189660e-06  3.2668134128434413e-06  4.6908748323622468e-06  6.1260764774366902e-06  7.8100180130924433e-06  8.7978197506189928e-06  1.1777556616943278e-05  3.9312925558215166e-05  3.6213547445063382e-05  3.4933225819843252e-05  3.2815967805943069e-05  3.0828642764771160e-05  2.8751496199167963e-05  2.6801801924676349e-05  2.4985276803530610e-05  2.3309366415865751e-05  2.1756621814580559e-05  2.0309913277722441e-05  1.8953620237461881e-05  1.7675242937612480e-05  1.6465133184590115e-05  1.5315939790987549e-05  1.4222052562624433e-05  1.3179029251378687e-05  1.2182993379643497e-05  1.1229969391418351e-05  1.0315167989379896e-05  9.4323409477574574e-06  8.5734499617152408e-06  7.7289920837589697e-06  6.8892745417285247e-06  6.0465744385176672e-06  5.1975529403924117e-06  4.3449255775695962e-06  3.4976672400528762e-06  2.6697855839381323e-06  1.8783208613039210e-06  1.1413412651137172e-06  4.7643529597346789e-07  -1.0013597508458117e-07  -5.7369322470651621e-07  -9.3096109120498584e-07  -1.1596110743268954e-06  -1.2476482941060779e-06  -1.1826887911751345e-06  -9.5120750601420751e-07  -5.3783303114884087e-07  7.5207752032159189e-08  9.0629783656325435e-07  1.9739488695554003e-06  3.2709831512236481e-06  4.7929492433736638e-06  6.3243279138036671e-06  8.0921065492366609e-06  9.1421169742370778e-06  1.2147308389833145e-05  3.9952945775595894e-05  3.6841890849559785e-05  3.5526211597984169e-05  3.3350099878488778e-05  3.1288189648831222e-05  2.9128412827264852e-05  2.7096246379088246e-05  2.5202889066652337e-05  2.3459327271999987e-05  2.1849351839021263e-05  2.0355931990330685e-05  1.8962584979030493e-05  1.7655588147816937e-05  1.6423950843696407e-05  1.5259054807432516e-05  1.4154213835105381e-05  1.3104149897661332e-05  1.2104375905842039e-05  1.1150437193585506e-05  1.0236973558024763e-05  9.3567401503908056e-06  8.4998976637424119e-06  7.6541451533278559e-06  6.8063320270379053e-06  5.9456420309001221e-06  5.0673580143704222e-06  4.1753543894776566e-06  3.2820219358578611e-06  2.4059054277219927e-06  1.5684562390096143e-06  7.9122094716065929e-07  9.4079572854493284e-08  -5.0546238312136382e-07  -9.9220976486616896e-07  -1.3527626886871455e-06  -1.5747877657500817e-06  -1.6462286694272834e-06  -1.5545062872050842e-06  -1.2857866816629057e-06  -8.2439264209930560e-07  -1.5247766857693501e-07  7.4786408894855094e-07  1.8936464811426635e-06  3.2748376979035565e-06  4.8821344909758122e-06  6.4938822652134219e-06  8.3285439499733773e-06  9.4258530977113614e-06  1.2449798934768049e-05  4.0536604106699316e-05  3.7416029074107090e-05  3.6072183817268227e-05  3.3848508178027862e-05  3.1725500289051985e-05  2.9496614556680678e-05  2.7393778323624243e-05  2.5432996613238309e-05  2.3628570123534305e-05  2.1965967590059454e-05  2.0428717518796208e-05  1.9000012644066093e-05  1.7665342293914534e-05  1.6412681407045431e-05  1.5232337204592996e-05  1.4116648575068640e-05  1.3059557103656424e-05  1.2056025928086658e-05  1.1101246062846992e-05  1.0189464945261640e-05  9.3126027443425403e-06  8.4589105647429362e-06  7.6126136360983055e-06  6.7558153836496025e-06  5.8732516784606847e-06  4.9584199048211011e-06  4.0174353733885986e-06  3.0681717000845415e-06  2.1357031113785497e-06  1.2470745481818130e-06  4.2756991688781300e-07  -3.0103550409170762e-07  -9.2069749299791338e-07  -1.4164617474626614e-06  -1.7754768122107972e-06  -1.9859570676410222e-06  -2.0362392318855753e-06  -1.9139533277247862e-06  -1.6053611848310830e-06  -1.0949209761055659e-06  -3.6519541283287500e-07  6.0076137791471618e-07  1.8180897986574035e-06  3.2737985942600168e-06  4.9541308634306302e-06  6.6323652881522488e-06  8.5204122411503175e-06  9.6542784558953752e-06  1.2692516248678456e-05  4.1055814627369094e-05  3.7927644205490199e-05  3.6561617279436839e-05  3.4299863203768275e-05  3.2127492305137390e-05  2.9841894037876040e-05  2.7680072105655437e-05  2.5662003878626440e-05  2.3804944510676466e-05  2.2096120099134637e-05  2.0519866306698582e-05  1.9059421360785010e-05  1.7699826559831902e-05  1.6428299290524712e-05  1.5234261754367513e-05  1.4109181205959041e-05  1.3046261672007349e-05  1.2039950761579391e-05  1.1085198433310747e-05  1.0176079547883528e-05  9.3040323823090274e-06  8.4554869296822945e-06  7.6104920180084888e-06  6.7445415530437406e-06  5.8356826955720584e-06  4.8750278141501258e-06  3.8729548476002383e-06  2.8562253571326414e-06  1.8591608796280097e-06  9.1544817265815179e-07  5.3755612118401379e-08  -7.0330372266369463e-07  -1.3383392188168677e-06  -1.8376637267210276e-06  -2.1897451617222051e-06  -2.3838882124768899e-06  -2.4092078722770801e-06  -2.2538451268522015e-06  -1.9044321513831132e-06  -1.3458382257601527e-06  -5.6130467073191802e-07  4.6493805957589313e-07  1.7460890343002028e-06  3.2663968321642280e-06  5.0082764061679600e-06  6.7410293363447026e-06  8.6716563271335534e-06  9.8340672875286655e-06  1.2883391920301438e-05  4.1503948695925243e-05  3.8369876088615843e-05  3.6986691311986539e-05  3.4694964760784374e-05  3.2483480626747989e-05  3.0152415954096520e-05  2.7942742869939240e-05  2.5877613609622816e-05  2.3976802529739151e-05  2.2229180452257778e-05  2.0619985554276109e-05  1.9132730273198100e-05  1.7752267016371100e-05  1.6465301200492084e-05  1.5260558674011790e-05  1.4128745976236360e-05  1.3062358419134329e-05  1.2055310370148059e-05  1.1102333476091291e-05  1.0197493099607428e-05  9.3323150034620470e-06  8.4918211829524722e-06  7.6514606725421782e-06  6.7774299442879352e-06  5.8372004924491692e-06  4.8186583182311933e-06  3.7403039084114452e-06  2.6433580354371625e-06  1.5747303004902768e-06  5.7497662723992677e-07  -3.2540248478955710e-07  -1.1049144283896864e-06  -1.7484675309438615e-06  -2.2447791040211738e-06  -2.5843272207606475e-06  -2.7578899897536614e-06  -2.7555679400422005e-06  -2.5661403042384715e-06  -2.1767121384560955e-06  -1.5726593703562053e-06  -7.3797301202534524e-07  3.4194005884947780e-07  1.6784871994280921e-06  3.2535315935097521e-06  5.0463614461609403e-06  6.8232768226939541e-06  8.7876670281187464e-06  9.9724020081480996e-06  1.3030367368500375e-05  4.1875473014104137e-05  3.8736987360543968e-05  3.7340921575792470e-05  3.5026256659307115e-05  3.2784684289327231e-05  3.0418324000235084e-05  2.8171201394289044e-05  2.6068928777110368e-05  2.4133339582490116e-05  2.2354738398691417e-05  2.0719252295992962e-05  1.9210792198037076e-05  1.7814218799811279e-05  1.6515950243102361e-05  1.5304222499111869e-05  1.4169132171461197e-05  1.3102526044357201e-05  1.2097743219798533e-05  1.1149167722307052e-05  1.0250815598132520e-05  9.3949442130810592e-06  8.5659580826982770e-06  7.7354288861788024e-06  6.8563692009901504e-06  5.8788744504367607e-06  4.7867417518225899e-06  3.6138314717652091e-06  2.4245192610138216e-06  1.2814225637506702e-06  2.3000750311540075e-07  -7.0080721656097219e-07  -1.4934741777831260e-06  -2.1369639935349006e-06  -2.6232936027126565e-06  -2.9453004308486013e-06  -3.0953005029191825e-06  -3.0643277040323500e-06  -2.8417213497977065e-06  -2.4149907570280825e-06  -1.7699573276256023e-06  -8.9127826839678474e-07  2.3461466923301114e-07  1.6176202152988999e-06  3.2376707980749028e-06  5.0716181681278712e-06  6.8835764260252232e-06  8.8743301076743805e-06  1.0076344274094665e-05  1.3140981567590289e-05  4.2165805668302940e-05  3.9024227416775621e-05  3.7618986326318727e-05  3.5287591881000574e-05  3.3023969503377006e-05  3.0631538348297770e-05  2.8356595385947562e-05  2.6226576824948137e-05  2.4264913644203943e-05  2.2463078185308923e-05  2.0807992131681195e-05  1.9284007267625819e-05  1.7876132532529909e-05  1.6570701551337503e-05  1.5355691175454426e-05  1.4220810238434732e-05  1.3157424098209716e-05  1.2158337403822737e-05  1.1217387424588868e-05  1.0328247238349500e-05  9.4841255500638071e-06  8.6696766446671983e-06  7.8560123673556957e-06  6.9773498962080032e-06  5.9558355108851952e-06  4.7711877592829500e-06  3.4846140269495886e-06  2.1957819449650314e-06  9.8371555453360184e-07  -1.0728533152944478e-07  -1.0552360760493503e-06  -1.8494535985548577e-06  -2.4840778708215178e-06  -2.9545786421811463e-06  -3.2559151976479400e-06  -3.3816050238443318e-06  -3.3233062015208532e-06  -3.0706741780342161e-06  -2.6114363331770202e-06  -1.9317007479063692e-06  -1.0166161638923679e-06  1.4659588006421938e-07  1.5666715604504631e-06  3.2220823897344940e-06  5.0878795918539534e-06  6.9266458750246880e-06  8.9373415957989623e-06  1.0152357315232924e-05  1.3222002520555098e-05  4.2371293569253926e-05  3.9227812661633973e-05  3.7816680640031416e-05  3.5474152825905027e-05  3.3195757269348299e-05  3.0785701768277784e-05  2.8491856398536070e-05  2.6342903750766863e-05  2.4363413004344442e-05  2.2545719622897820e-05  2.0877378115295466e-05  1.9343145523130104e-05  1.7928247189623339e-05  1.6619083364644568e-05  1.5403587850977695e-05  1.4271346517138699e-05  1.3213533373290573e-05  1.2222665146199352e-05  1.1292085911377001e-05  1.0414916196267632e-05  9.5844982325384527e-06  8.7857322193876121e-06  7.9957312942656903e-06  7.1230949466613181e-06  6.0519847498728390e-06  4.7593719467112436e-06  3.3467816502551534e-06  1.9636884167673592e-06  7.0068098113861552e-07  -4.1029768679346699e-07  -1.3596549751552600e-06  -2.1447618847812147e-06  -2.7644041921186745e-06  -3.2165869542901619e-06  -3.4975635772984738e-06  -3.6014310361598168e-06  -3.5200421033434830e-06  -3.2430803949458234e-06  -2.7582873206687656e-06  -2.0518827592834753e-06  -1.1093105340947212e-06  8.1675556878559779e-08  1.5290055968351411e-06  3.2101369025973058e-06  5.0988867297516757e-06  6.9568206907111861e-06  8.9816890249688938e-06  1.0205921684024161e-05  1.3279105988762498e-05  4.2489248371441150e-05  3.9344964640762147e-05  3.7930941206564046e-05  3.5582459588772949e-05  3.3296031205873424e-05  3.0876222492538215e-05  2.8571824965080208e-05  2.6412227006076714e-05  2.4422675228758175e-05  2.2596031992179995e-05  2.0920263303254230e-05  1.9380417368964626e-05  1.7961913186339731e-05  1.6651271246063147e-05  1.5436501174813089e-05  1.4307247506757809e-05  1.3254743364550219e-05  1.2271544227856338e-05  1.1350908289070680e-05  1.0485735543975820e-05  9.6684633019515717e-06  8.8839128689873510e-06  8.1195384217310160e-06  7.2517702115515728e-06  6.1358409711351384e-06  4.7469713941798071e-06  3.2168846212196344e-06  1.7632138827732781e-06  4.7765856750645947e-07  -6.3337381848496812e-07  -1.5732028604334211e-06  -2.3449475688836518e-06  -2.9497748719941940e-06  -3.3866629535744271e-06  -3.6522007568451196e-06  -3.7405128395422371e-06  -3.6433419547758210e-06  -3.3502299623129725e-06  -2.8488178571230938e-06  -2.1253205927252770e-06  -1.1653135768328212e-06  4.3155133274274825e-08  1.5075458494021816e-06  3.2047101821346730e-06  5.1077329657972523e-06  6.9775686521247316e-06  9.0112552927241171e-06  1.0241229015387409e-05  1.3316608129795794e-05  4.2517997223641838e-05  3.9373963613042499e-05  3.7959895995572570e-05  3.5610414651603065e-05  3.3322389729417816e-05  3.0900358298479216e-05  2.8593402010135595e-05  2.6431094035889547e-05  2.4438894914446152e-05  2.2609836376096046e-05  2.0932032150837967e-05  1.9390645933010210e-05  1.7971185647224005e-05  1.6660239067504542e-05  1.5445870192090317e-05  1.4317775227609376e-05  1.3267246137736417e-05  1.2286910224946990e-05  1.1370105471392983e-05  1.0509855282501486e-05  9.6980090786062319e-06  8.9205794408308366e-06  8.1707372091199976e-06  7.3131937930057035e-06  6.1754709079173536e-06  4.7523977237065025e-06  3.1673351009786212e-06  1.6747399569118021e-06  3.8693317717260585e-07  -7.1953858757897916e-07  -1.6528358741790399e-06  -2.4178241243443839e-06  -3.0160703661901759e-06  -3.4466214170986330e-06  -3.7060300083851757e-06  -3.7883371810517206e-06  -3.6851817709402147e-06  -3.3860051223220047e-06  -2.8783713902221937e-06  -2.1484600123476520e-06  -1.1818660695605716