<?xml version="1.0"?>
<VTKFile type="UnstructuredGrid"  version="0.1"  >
<UnstructuredGrid>
<Piece  NumberOfPoints="1617" NumberOfCells="3072">
<Points>
<DataArray  type="Float64"  NumberOfComponents="3"  format="ascii">0 0 0  0.03125 0 0  0.0625 0 0  0.09375 0 0  0.125 0 0  0.15625 0 0  0.1875 0 0  0.21875 0 0  0.25 0 0  0.28125 0 0  0.3125 0 0  0.34375 0 0  0.375 0 0  0.40625 0 0  0.4375 0 0  0.46875 0 0  0.5 0 0  0.53125 0 0  0.5625 0 0  0.59375 0 0  0.625 0 0  0.65625 0 0  0.6875 0 0  0.71875 0 0  0.75 0 0  0.78125 0 0  0.8125 0 0  0.84375 0 0  0.875 0 0  0.90625 0 0  0.9375 0 0  0.96875 0 0  1 0 0  1.03125 0 0  1.0625 0 0  1.09375 0 0  1.125 0 0  1.15625 0 0  1.1875 0 0  1.21875 0 0  1.25 0 0  1.28125 0 0  1.3125 0 0  1.34375 0 0  1.375 0 0  1.40625 0 0  1.4375 0 0  1.46875 0 0  1.5 0 0  0 0.03125 0  0.03125 0.03125 0  0.0625 0.03125 0  0.09375 0.03125 0  0.125 0.03125 0  0.15625 0.03125 0  0.1875 0.03125 0  0.21875 0.03125 0  0.25 0.03125 0  0.28125 0.03125 0  0.3125 0.03125 0  0.34375 0.03125 0  0.375 0.03125 0  0.40625 0.03125 0  0.4375 0.03125 0  0.46875 0.03125 0  0.5 0.03125 0  0.53125 0.03125 0  0.5625 0.03125 0  0.59375 0.03125 0  0.625 0.03125 0  0.65625 0.03125 0  0.6875 0.03125 0  0.71875 0.03125 0  0.75 0.03125 0  0.78125 0.03125 0  0.8125 0.03125 0  0.84375 0.03125 0  0.875 0.03125 0  0.90625 0.03125 0  0.9375 0.03125 0  0.96875 0.03125 0  1 0.03125 0  1.03125 0.03125 0  1.0625 0.03125 0  1.09375 0.03125 0  1.125 0.03125 0  1.15625 0.03125 0  1.1875 0.03125 0  1.21875 0.03125 0  1.25 0.03125 0  1.28125 0.03125 0  1.3125 0.03125 0  1.34375 0.03125 0  1.375 0.03125 0  1.40625 0.03125 0  1.4375 0.03125 0  1.46875 0.03125 0  1.5 0.03125 0  0 0.0625 0  0.03125 0.0625 0  0.0625 0.0625 0  0.09375 0.0625 0  0.125 0.0625 0  0.15625 0.0625 0  0.1875 0.0625 0  0.21875 0.0625 0  0.25 0.0625 0  0.28125 0.0625 0  0.3125 0.0625 0  0.34375 0.0625 0  0.375 0.0625 0  0.40625 0.0625 0  0.4375 0.0625 0  0.46875 0.0625 0  0.5 0.0625 0  0.53125 0.0625 0  0.5625 0.0625 0  0.59375 0.0625 0  0.625 0.0625 0  0.65625 0.0625 0  0.6875 0.0625 0  0.71875 0.0625 0  0.75 0.0625 0  0.78125 0.0625 0  0.8125 0.0625 0  0.84375 0.0625 0  0.875 0.0625 0  0.90625 0.0625 0  0.9375 0.0625 0  0.96875 0.0625 0  1 0.0625 0  1.03125 0.0625 0  1.0625 0.0625 0  1.09375 0.0625 0  1.125 0.0625 0  1.15625 0.0625 0  1.1875 0.0625 0  1.21875 0.0625 0  1.25 0.0625 0  1.28125 0.0625 0  1.3125 0.0625 0  1.34375 0.0625 0  1.375 0.0625 0  1.40625 0.0625 0  1.4375 0.0625 0  1.46875 0.0625 0  1.5 0.0625 0  0 0.09375 0  0.03125 0.09375 0  0.0625 0.09375 0  0.09375 0.09375 0  0.125 0.09375 0  0.15625 0.09375 0  0.1875 0.09375 0  0.21875 0.09375 0  0.25 0.09375 0  0.28125 0.09375 0  0.3125 0.09375 0  0.34375 0.09375 0  0.375 0.09375 0  0.40625 0.09375 0  0.4375 0.09375 0  0.46875 0.09375 0  0.5 0.09375 0  0.53125 0.09375 0  0.5625 0.09375 0  0.59375 0.09375 0  0.625 0.09375 0  0.65625 0.09375 0  0.6875 0.09375 0  0.71875 0.09375 0  0.75 0.09375 0  0.78125 0.09375 0  0.8125 0.09375 0  0.84375 0.09375 0  0.875 0.09375 0  0.90625 0.09375 0  0.9375 0.09375 0  0.96875 0.09375 0  1 0.09375 0  1.03125 0.09375 0  1.0625 0.09375 0  1.09375 0.09375 0  1.125 0.09375 0  1.15625 0.09375 0  1.1875 0.09375 0  1.21875 0.09375 0  1.25 0.09375 0  1.28125 0.09375 0  1.3125 0.09375 0  1.34375 0.09375 0  1.375 0.09375 0  1.40625 0.09375 0  1.4375 0.09375 0  1.46875 0.09375 0  1.5 0.09375 0  0 0.125 0  0.03125 0.125 0  0.0625 0.125 0  0.09375 0.125 0  0.125 0.125 0  0.15625 0.125 0  0.1875 0.125 0  0.21875 0.125 0  0.25 0.125 0  0.28125 0.125 0  0.3125 0.125 0  0.34375 0.125 0  0.375 0.125 0  0.40625 0.125 0  0.4375 0.125 0  0.46875 0.125 0  0.5 0.125 0  0.53125 0.125 0  0.5625 0.125 0  0.59375 0.125 0  0.625 0.125 0  0.65625 0.125 0  0.6875 0.125 0  0.71875 0.125 0  0.75 0.125 0  0.78125 0.125 0  0.8125 0.125 0  0.84375 0.125 0  0.875 0.125 0  0.90625 0.125 0  0.9375 0.125 0  0.96875 0.125 0  1 0.125 0  1.03125 0.125 0  1.0625 0.125 0  1.09375 0.125 0  1.125 0.125 0  1.15625 0.125 0  1.1875 0.125 0  1.21875 0.125 0  1.25 0.125 0  1.28125 0.125 0  1.3125 0.125 0  1.34375 0.125 0  1.375 0.125 0  1.40625 0.125 0  1.4375 0.125 0  1.46875 0.125 0  1.5 0.125 0  0 0.15625 0  0.03125 0.15625 0  0.0625 0.15625 0  0.09375 0.15625 0  0.125 0.15625 0  0.15625 0.15625 0  0.1875 0.15625 0  0.21875 0.15625 0  0.25 0.15625 0  0.28125 0.15625 0  0.3125 0.15625 0  0.34375 0.15625 0  0.375 0.15625 0  0.40625 0.15625 0  0.4375 0.15625 0  0.46875 0.15625 0  0.5 0.15625 0  0.53125 0.15625 0  0.5625 0.15625 0  0.59375 0.15625 0  0.625 0.15625 0  0.65625 0.15625 0  0.6875 0.15625 0  0.71875 0.15625 0  0.75 0.15625 0  0.78125 0.15625 0  0.8125 0.15625 0  0.84375 0.15625 0  0.875 0.15625 0  0.90625 0.15625 0  0.9375 0.15625 0  0.96875 0.15625 0  1 0.15625 0  1.03125 0.15625 0  1.0625 0.15625 0  1.09375 0.15625 0  1.125 0.15625 0  1.15625 0.15625 0  1.1875 0.15625 0  1.21875 0.15625 0  1.25 0.15625 0  1.28125 0.15625 0  1.3125 0.15625 0  1.34375 0.15625 0  1.375 0.15625 0  1.40625 0.15625 0  1.4375 0.15625 0  1.46875 0.15625 0  1.5 0.15625 0  0 0.1875 0  0.03125 0.1875 0  0.0625 0.1875 0  0.09375 0.1875 0  0.125 0.1875 0  0.15625 0.1875 0  0.1875 0.1875 0  0.21875 0.1875 0  0.25 0.1875 0  0.28125 0.1875 0  0.3125 0.1875 0  0.34375 0.1875 0  0.375 0.1875 0  0.40625 0.1875 0  0.4375 0.1875 0  0.46875 0.1875 0  0.5 0.1875 0  0.53125 0.1875 0  0.5625 0.1875 0  0.59375 0.1875 0  0.625 0.1875 0  0.65625 0.1875 0  0.6875 0.1875 0  0.71875 0.1875 0  0.75 0.1875 0  0.78125 0.1875 0  0.8125 0.1875 0  0.84375 0.1875 0  0.875 0.1875 0  0.90625 0.1875 0  0.9375 0.1875 0  0.96875 0.1875 0  1 0.1875 0  1.03125 0.1875 0  1.0625 0.1875 0  1.09375 0.1875 0  1.125 0.1875 0  1.15625 0.1875 0  1.1875 0.1875 0  1.21875 0.1875 0  1.25 0.1875 0  1.28125 0.1875 0  1.3125 0.1875 0  1.34375 0.1875 0  1.375 0.1875 0  1.40625 0.1875 0  1.4375 0.1875 0  1.46875 0.1875 0  1.5 0.1875 0  0 0.21875 0  0.03125 0.21875 0  0.0625 0.21875 0  0.09375 0.21875 0  0.125 0.21875 0  0.15625 0.21875 0  0.1875 0.21875 0  0.21875 0.21875 0  0.25 0.21875 0  0.28125 0.21875 0  0.3125 0.21875 0  0.34375 0.21875 0  0.375 0.21875 0  0.40625 0.21875 0  0.4375 0.21875 0  0.46875 0.21875 0  0.5 0.21875 0  0.53125 0.21875 0  0.5625 0.21875 0  0.59375 0.21875 0  0.625 0.21875 0  0.65625 0.21875 0  0.6875 0.21875 0  0.71875 0.21875 0  0.75 0.21875 0  0.78125 0.21875 0  0.8125 0.21875 0  0.84375 0.21875 0  0.875 0.21875 0  0.90625 0.21875 0  0.9375 0.21875 0  0.96875 0.21875 0  1 0.21875 0  1.03125 0.21875 0  1.0625 0.21875 0  1.09375 0.21875 0  1.125 0.21875 0  1.15625 0.21875 0  1.1875 0.21875 0  1.21875 0.21875 0  1.25 0.21875 0  1.28125 0.21875 0  1.3125 0.21875 0  1.34375 0.21875 0  1.375 0.21875 0  1.40625 0.21875 0  1.4375 0.21875 0  1.46875 0.21875 0  1.5 0.21875 0  0 0.25 0  0.03125 0.25 0  0.0625 0.25 0  0.09375 0.25 0  0.125 0.25 0  0.15625 0.25 0  0.1875 0.25 0  0.21875 0.25 0  0.25 0.25 0  0.28125 0.25 0  0.3125 0.25 0  0.34375 0.25 0  0.375 0.25 0  0.40625 0.25 0  0.4375 0.25 0  0.46875 0.25 0  0.5 0.25 0  0.53125 0.25 0  0.5625 0.25 0  0.59375 0.25 0  0.625 0.25 0  0.65625 0.25 0  0.6875 0.25 0  0.71875 0.25 0  0.75 0.25 0  0.78125 0.25 0  0.8125 0.25 0  0.84375 0.25 0  0.875 0.25 0  0.90625 0.25 0  0.9375 0.25 0  0.96875 0.25 0  1 0.25 0  1.03125 0.25 0  1.0625 0.25 0  1.09375 0.25 0  1.125 0.25 0  1.15625 0.25 0  1.1875 0.25 0  1.21875 0.25 0  1.25 0.25 0  1.28125 0.25 0  1.3125 0.25 0  1.34375 0.25 0  1.375 0.25 0  1.40625 0.25 0  1.4375 0.25 0  1.46875 0.25 0  1.5 0.25 0  0 0.28125 0  0.03125 0.28125 0  0.0625 0.28125 0  0.09375 0.28125 0  0.125 0.28125 0  0.15625 0.28125 0  0.1875 0.28125 0  0.21875 0.28125 0  0.25 0.28125 0  0.28125 0.28125 0  0.3125 0.28125 0  0.34375 0.28125 0  0.375 0.28125 0  0.40625 0.28125 0  0.4375 0.28125 0  0.46875 0.28125 0  0.5 0.28125 0  0.53125 0.28125 0  0.5625 0.28125 0  0.59375 0.28125 0  0.625 0.28125 0  0.65625 0.28125 0  0.6875 0.28125 0  0.71875 0.28125 0  0.75 0.28125 0  0.78125 0.28125 0  0.8125 0.28125 0  0.84375 0.28125 0  0.875 0.28125 0  0.90625 0.28125 0  0.9375 0.28125 0  0.96875 0.28125 0  1 0.28125 0  1.03125 0.28125 0  1.0625 0.28125 0  1.09375 0.28125 0  1.125 0.28125 0  1.15625 0.28125 0  1.1875 0.28125 0  1.21875 0.28125 0  1.25 0.28125 0  1.28125 0.28125 0  1.3125 0.28125 0  1.34375 0.28125 0  1.375 0.28125 0  1.40625 0.28125 0  1.4375 0.28125 0  1.46875 0.28125 0  1.5 0.28125 0  0 0.3125 0  0.03125 0.3125 0  0.0625 0.3125 0  0.09375 0.3125 0  0.125 0.3125 0  0.15625 0.3125 0  0.1875 0.3125 0  0.21875 0.3125 0  0.25 0.3125 0  0.28125 0.3125 0  0.3125 0.3125 0  0.34375 0.3125 0  0.375 0.3125 0  0.40625 0.3125 0  0.4375 0.3125 0  0.46875 0.3125 0  0.5 0.3125 0  0.53125 0.3125 0  0.5625 0.3125 0  0.59375 0.3125 0  0.625 0.3125 0  0.65625 0.3125 0  0.6875 0.3125 0  0.71875 0.3125 0  0.75 0.3125 0  0.78125 0.3125 0  0.8125 0.3125 0  0.84375 0.3125 0  0.875 0.3125 0  0.90625 0.3125 0  0.9375 0.3125 0  0.96875 0.3125 0  1 0.3125 0  1.03125 0.3125 0  1.0625 0.3125 0  1.09375 0.3125 0  1.125 0.3125 0  1.15625 0.3125 0  1.1875 0.3125 0  1.21875 0.3125 0  1.25 0.3125 0  1.28125 0.3125 0  1.3125 0.3125 0  1.34375 0.3125 0  1.375 0.3125 0  1.40625 0.3125 0  1.4375 0.3125 0  1.46875 0.3125 0  1.5 0.3125 0  0 0.34375 0  0.03125 0.34375 0  0.0625 0.34375 0  0.09375 0.34375 0  0.125 0.34375 0  0.15625 0.34375 0  0.1875 0.34375 0  0.21875 0.34375 0  0.25 0.34375 0  0.28125 0.34375 0  0.3125 0.34375 0  0.34375 0.34375 0  0.375 0.34375 0  0.40625 0.34375 0  0.4375 0.34375 0  0.46875 0.34375 0  0.5 0.34375 0  0.53125 0.34375 0  0.5625 0.34375 0  0.59375 0.34375 0  0.625 0.34375 0  0.65625 0.34375 0  0.6875 0.34375 0  0.71875 0.34375 0  0.75 0.34375 0  0.78125 0.34375 0  0.8125 0.34375 0  0.84375 0.34375 0  0.875 0.34375 0  0.90625 0.34375 0  0.9375 0.34375 0  0.96875 0.34375 0  1 0.34375 0  1.03125 0.34375 0  1.0625 0.34375 0  1.09375 0.34375 0  1.125 0.34375 0  1.15625 0.34375 0  1.1875 0.34375 0  1.21875 0.34375 0  1.25 0.34375 0  1.28125 0.34375 0  1.3125 0.34375 0  1.34375 0.34375 0  1.375 0.34375 0  1
[...]
<PointData  Scalars="f_33"> 
<DataArray  type="Float64"  Name="f_33"  format="ascii">2.1235435999469549e-05  1.8701484907357651e-05  1.6503929769577970e-05  1.4400791909410407e-05  1.2404859254044442e-05  1.0513381179586533e-05  8.7275319884659269e-06  7.0481845701943613e-06  5.4747029611181919e-06  4.0052873389110788e-06  2.6374678719788721e-06  1.3684628947255527e-06  1.9538661474872416e-07  -8.8464159150218102e-07  -1.8744372185319184e-06  -2.7767137827354968e-06  -3.5940566021868156e-06  -4.3289010323167197e-06  -4.9835108150540989e-06  -5.5599524357811207e-06  -6.0600615360482834e-06  -6.4853984265455873e-06  -6.8371920391081415e-06  -7.1162751665729719e-06  -7.3230177809960664e-06  -7.4572682009745982e-06  -7.5183124733281273e-06  -7.5048599523537560e-06  -7.4150584131802479e-06  -7.2465367785908455e-06  -6.9964693303498705e-06  -6.6616530915523268e-06  -6.2385899251646264e-06  -5.7235663950291006e-06  -5.1127263540618993e-06  -4.4021343888890055e-06  -3.5878279145335588e-06  -2.6658656463181433e-06  -1.6323657998695606e-06  -4.8358767657953898e-07  7.8395598654394490e-07  2.1731554501677432e-06  3.6854398652261582e-06  5.3206235384081580e-06  7.0710987303481257e-06  8.9395928286483611e-06  1.0899768322679764e-05  1.2974740448336388e-05  1.4751488872252620e-05  2.2062320273395041e-05  1.8897770296721739e-05  1.6513645940921817e-05  1.4370129452634530e-05  1.2362598962664310e-05  1.0466906801972100e-05  8.6789099838118128e-06  6.9987455449460058e-06  5.4252507571156212e-06  3.9562493895626474e-06  2.5890266857412062e-06  1.3206719845726509e-06  1.4824098382453694e-07  -9.3117042432274025e-07  -1.9203867746827754e-06  -2.8221259514658404e-06  -3.6389773698177186e-06  -4.3733826192922154e-06  -5.0276156916514134e-06  -5.6037589516949409e-06  -6.1036704968518121e-06  -6.5289392701865012e-06  -6.8808266736178003e-06  -7.1601974130823395e-06  -7.3674470121045212e-06  -7.5024371444511370e-06  -7.5644508060524489e-06  -7.5521765454171309e-06  -7.4637253968337197e-06  -7.2966779391581797e-06  -7.0481541038616889e-06  -6.7148960947033731e-06  -6.2933549272576897e-06  -5.7797730868528047e-06  -5.1702580534079273e-06  -4.4608448421381887e-06  -3.6475452576367430e-06  -2.7263894899022004e-06  -1.6934547505828018e-06  -5.4491054035005603e-07  7.2289527405539088e-07  2.1132874209600846e-06  3.6284112665501215e-06  5.2695842815735942e-06  7.0325851166517139e-06  8.9174663976042205e-06  1.0946354615146863e-05  1.3045518757229091e-05  1.5659204626566902e-05  2.2881415812164072e-05  1.9348385129382268e-05  1.6687510317908463e-05  1.4366472124671363e-05  1.2278261841513353e-05  1.0344979566435778e-05  8.5385917093590007e-06  6.8503277259065734e-06  5.2742216252438805e-06  3.8056295955375961e-06  2.4404767231844204e-06  1.1750954752461689e-06  6.1048682669792379e-09  -1.0696621776572256e-06  -2.0551980245225154e-06  -2.9533347170265221e-06  -3.7667454571445647e-06  -4.4979399534818484e-06  -5.1492553249695818e-06  -5.7228402221943899e-06  -6.2206275104101082e-06  -6.6442906280315930e-06  -6.9951810909912447e-06  -7.2742496487129267e-06  -7.4819602323141241e-06  -7.6182114793758759e-06  -7.6822821459832062e-06  -7.6728126270963921e-06  -7.5878266312090343e-06  -7.4247883543668334e-06  -7.1806844217956297e-06  -6.8521176842841687e-06  -6.4354010130525919e-06  -5.9266423294120594e-06  -5.3218150069532535e-06  -4.6168113990054921e-06  -3.8074752118647897e-06  -2.8896157223381833e-06  -1.8589868610698959e-06  -7.1125076737943910e-07  5.5809343648693109e-07  1.9538438691506576e-06  3.4806975443335886e-06  5.1448211660041312e-06  6.9501187265771455e-06  8.9139509941700643e-06  1.1098184352562863e-05  1.3447762852757788e-05  1.6644025616599891e-05  2.3620115724597013e-05  1.9934343990826752e-05  1.7054882167647098e-05  1.4503097414975783e-05  1.2270975655825580e-05  1.0251080748274870e-05  8.3928286030372229e-06  6.6745793021402256e-06  5.0816924198905227e-06  3.6044885422309729e-06  2.2358248193367746e-06  9.7014864018383948e-07  -1.9711084171356562e-07  -1.2698930670890988e-06  -2.2517080394566126e-06  -3.1457460647399896e-06  -3.9549377650780699e-06  -4.6819879994443412e-06  -5.3293944714732315e-06  -5.8994526596300777e-06  -6.3942429854406715e-06  -6.8155937553859047e-06  -7.1650151873758659e-06  -7.4436063725110175e-06  -7.6519471581180837e-06  -7.7899964418291250e-06  -7.8570213318670093e-06  -7.8515749370427323e-06  -7.7715271299353206e-06  -7.6141392071486019e-06  -7.3761652593466356e-06  -7.0539615082269712e-06  -6.6435878885829038e-06  -6.1408912122585482e-06  -5.5415631941441444e-06  -4.8411699848705744e-06  -4.0351460488060220e-06  -3.1187486180782932e-06  -2.0869435731921798e-06  -9.3421718396116985e-07  3.4573818723580927e-07  1.7605731909347674e-06  3.3195280002872679e-06  5.0361157270280367e-06  6.9259170238493890e-06  9.0240604814816363e-06  1.1416473213653503e-05  1.4052661776994627e-05  1.7529126324902823e-05  2.4328461159277701e-05  2.0567898599152897e-05  1.7512842036606675e-05  1.4758006522367405e-05  1.2362259785796356e-05  1.0223746560031726e-05  8.2843467594791957e-06  6.5126225834018464e-06  4.8852092387261496e-06  3.3864603669280818e-06  2.0050835482445923e-06  7.3270258554853912e-07  -4.3718132090139232e-07  -1.5098397243111457e-06  -2.4897165915123344e-06  -3.3806680380176644e-06  -4.1861093169974431e-06  -4.9091098153383522e-06  -5.5524573720974526e-06  -6.1186988368522100e-06  -6.6101536250190325e-06  -7.0288912221840868e-06  -7.3766638852894763e-06  -7.6547942961433303e-06  -7.8640340819256239e-06  -8.0044260567868780e-06  -8.0752090803135412e-06  -8.0747927087147988e-06  -8.0008053276829712e-06  -7.8501977653166159e-06  -7.6193738074874427e-06  -7.3043198353545821e-06  -6.9007129074296576e-06  -6.4039950457609385e-06  -5.8094069782902209e-06  -5.1119774720644515e-06  -4.3064583885597096e-06  -3.3871951083878631e-06  -2.3478913619294530e-06  -1.1812454075958554e-06  1.2162170375682675e-07  1.5720671154199261e-06  3.1846601577188633e-06  4.9802936949613373e-06  6.9841552464765920e-06  9.2415245021640827e-06  1.1840890937668732e-05  1.4709221368350999e-05  1.8338682048943175e-05  2.5002519630851262e-05  2.1194300694034390e-05  1.8007451504300529e-05  1.5085979803760880e-05  1.2533387749709741e-05  1.0265926627452352e-05  8.2286590118035625e-06  6.3859559160114342e-06  4.7084967284129776e-06  3.1754769077057086e-06  1.7714025480533839e-06  4.8471095597753322e-07  -6.9346034765743463e-07  -1.7701264037858538e-06  -2.7510150293731906e-06  -3.6409314526522250e-06  -4.4439983450727495e-06  -5.1638224242420300e-06  -5.8036166322896607e-06  -6.3662892970163231e-06  -6.8544967971127379e-06  -7.2706456949613835e-06  -7.6168275034235046e-06  -7.8946799326772533e-06  -8.1051948199755218e-06  -8.2485244185190653e-06  -8.3238506084513623e-06  -8.3293601153445972e-06  -8.2623258190780687e-06  -8.1192583209045938e-06  -7.8960797245901450e-06  -7.5882790927046626e-06  -7.1910241827350002e-06  -6.6992179643023227e-06  -6.1074958900088520e-06  -5.4101620005667943e-06  -4.6010535679055787e-06  -3.6733206374372768e-06  -2.6190739730284743e-06  -1.4288739615915287e-06  -9.0981474218995642e-08  1.4097151858428875e-06  3.0925371878236734e-06  4.9838544257377259e-06  7.1139887792828616e-06  9.5299215749628365e-06  1.2310301624815038e-05  1.5353456845135554e-05  1.9072873500800937e-05  2.5632542154727055e-05  2.1789620903927429e-05  1.8502586539081149e-05  1.5447358918113820e-05  1.2756102460737519e-05  1.0364068038143112e-05  8.2240703274152149e-06  6.3010634521805083e-06  4.5631127752491300e-06  2.9859247602021589e-06  1.5505379720329954e-06  2.4241062333492106e-07  -9.4974465979890125e-07  -2.0348617443787168e-06  -3.0201588283942291e-06  -3.9115888030030757e-06  -4.7141547278572544e-06  -5.4321432554747119e-06  -6.0693076118352171e-06  -6.6290141281873222e-06  -7.1143466402491162e-06  -7.5281460063967182e-06  -7.8729525807715278e-06  -8.1508310958750153e-06  -8.3631003667716558e-06  -8.5100505735025610e-06  -8.5907595757288316e-06  -8.6030788647820370e-06  -8.5437778045905757e-06  -8.4087745124660178e-06  -8.1933727489439572e-06  -7.8924483450467219e-06  -7.5005585464274221e-06  -7.0119691965407463e-06  -6.4206036446764203e-06  -5.7199174313154718e-06  -4.9026916413555676e-06  -3.9607326712110862e-06  -2.8844343831392986e-06  -1.6621844040755169e-06  -2.7955853790077235e-07  1.2817159627044708e-06  3.0443698059894248e-06  5.0377112642843035e-06  7.2930588554765027e-06  9.8535976386751091e-06  1.2783960278636650e-05  1.5957644666994493e-05  1.9735776460364117e-05  2.6210877739431171e-05  2.2341267920124280e-05  1.8976942371004970e-05  1.5814676113733774e-05  1.3005421146879347e-05  1.0500286564923813e-05  8.2608941365536333e-06  6.2555135309649436e-06  4.4521507240580818e-06  2.8247590634138631e-06  1.3519851661074604e-06  1.6871485823614715e-08  -1.1940588398628822e-06  -2.2916096288053958e-06  -3.2845379599785702e-06  -4.1800350912376242e-06  -4.9840844860080224e-06  -5.7017446434630079e-06  -6.3373866567459823e-06  -6.8949020740320013e-06  -7.3778717612905684e-06  -7.7896606718924105e-06  -8.1333793948456196e-06  -8.4116604887884904e-06  -8.6262651765379750e-06  -8.7776543617071495e-06  -8.8647244580110136e-06  -8.8848280396996295e-06  -8.8340367179304832e-06  -8.7075017296205150e-06  -8.4997787030663174e-06  -8.2050453226555883e-06  -7.8171946273693644e-06  -7.3298160317824195e-06  -6.7360833352100557e-06  -6.0285641695046302e-06  -5.1989500558334960e-06  -4.2376998800418761e-06  -3.1335609432949685e-06  -1.8729669056335910e-06  -4.3928929774678570e-07  1.1880064424886480e-06  3.0335594550156668e-06  5.1273937790062009e-06  7.4990312094836598e-06  1.0185389306527131e-05  1.3237366441531882e-05  1.6509720044174676e-05  2.0329234252173446e-05  2.6732486382165203e-05  2.2841929614560799e-05  1.9417429859607000e-05  1.6169499077211247e-05  1.3261783241920420e-05  1.0657702188950747e-05  8.3270578660047956e-06  6.2425071152454528e-06  4.3735402029032078e-06  2.6937418237720366e-06  1.1804151738276245e-06  -1.8513002467892597e-07  -1.4181586892056149e-06  -2.5311374926107593e-06  -3.5342806134506983e-06  -4.4360079707994867e-06  -5.2433087202673064e-06  -5.9620487147091412e-06  -6.5972490463550673e-06  -7.1533542306567701e-06  -7.6344786430504299e-06  -8.0445839495208009e-06  -8.3874842318990355e-06  -8.6665640958307488e-06  -8.8841902665057384e-06  -9.0410334850930200e-06  -9.1356778565300687e-06  -9.1647302775772514e-06  -9.1233064624214466e-06  -9.0055986665372059e-06  -8.8053113330670686e-06  -8.5158948389886952e-06  -8.1305939271365606e-06  -7.6423570838781802e-06  -7.0436495746326619e-06  -6.3261974422409058e-06  -5.4806683342967381e-06  -4.4962876645039844e-06  -3.3603640532060734e-06  -2.0577422603814251e-06  -5.7019102798549638e-07  1.1241680742317393e-06  3.0506048458364774e-06  5.2383110328493569e-06  7.7135606215433940e-06  1.0506502800159637e-05  1.3656302691018612e-05  1.7004365768879067e-05  2.0854551326953320e-05  2.7194340655860502e-05  2.3287242828913518e-05  1.9815726958460953e-05  1.6499372261998651e-05  1.3510613777053656e-05  1.0822184346733783e-05  8.4108427970907453e-06  6.2537176086562890e-06  4.3225201042074907e-06  2.5913821161165244e-06  1.0370952462548056e-06  -3.6012311222109591e-07  -1.6168770014008774e-06  -2.7470079057162086e-06  -3.7620198545831415e-06  -4.6714756656955549e-06  -5.4833336216986848e-06  -6.2042527871645370e-06  -6.8398936482599741e-06  -7.3952387667873139e-06  -7.8749285334985126e-06  -8.2835638436412141e-06  -8.6258049314431590e-06  -8.9060399151412139e-06  -9.1274870939014641e-06  -9.2910757581087127e-06  -9.3948497211898291e-06  -9.4342865579135300e-06  -9.4032035993946708e-06  -9.2946420870821552e-06  -9.1014138143374936e-06  -8.8163005908830221e-06  -8.4320045024801639e-06  -7.9409501809911615e-06  -7.3350089603988555e-06  -6.6051818874545796e-06  -5.7412499123367506e-06  -4.7313923324562702e-06  -3.5617549097686673e-06  -2.2160010712464207e-06  -6.7487576667476642e-07  1.0840775164712589e-06  3.0858516053019550e-06  5.3579296178403526e-06  7.9228574690686780e-06  1.0804533202868780e-05  1.4032732341835656e-05  1.7439595254792987e-05  2.1313182376237956e-05  2.7594732607072822e-05  2.3674615265914210e-05  2.0166447782963601e-05  1.6795778785316642e-05  1.3741227035756790e-05  1.0982488189511449e-05  8.5019635951548726e-06  6.2808450576610613e-06  4.2932619159935257e-06  2.5143906500252291e-06  9.2108067026001173e-07  -5.0702593048926573e-07  -1.7874560045886145e-06  -2.9351190259964186e-06  -3.9625987691416867e-06  -4.8804669693530502e-06  -5.6975711520014118e-06  -6.4213142758515426e-06  -7.0579554663330542e-06  -7.6129632132345232e-06  -8.0914442536016971e-06  -8.4986315270295241e-06  -8.8401685751458554e-06  -9.1218018230099281e-06  -9.3479955929080627e-06  -9.5199999675554485e-06  -9.6349107981746271e-06  -9.6864694712833192e-06  -9.6667575437353459e-06  -9.5675236119384486e-06  -9.3807660081668481e-06  -9.0987826869470397e-06  -8.7139406364052207e-06  -8.2183317516609121e-06  -7.6034015473301333e-06  -6.8595843206592621e-06  -5.9759460858744438e-06  -4.9398330760522990e-06  -3.7365104661611186e-06  -2.3488343876455075e-06  -7.5699933423433509e-07  1.0614822208858880e-06  3.1307878637097042e-06  5.4763390827051758e-06  8.1170638833634179e-06  1.1071538686617482e-05  1.4362287442405975e-05  1.7815104428686701e-05  2.1706812157847219e-05  2.7932750417656267e-05  2.4002516262698798e-05  2.0466066811944615e-05  1.7052837555935054e-05  1.3945831561182520e-05  1.1129896745474767e-05  8.5918639024757822e-06  6.3163735750514824e-06  4.2798452858994168e-06  2.4586848486861771e-06  8.3013263562474420e-07  -6.2637383042125531e-07  -1.9289404909629634e-06  -3.0932578406454908e-06  -4.1327671692688646e-06  -5.0588886009584179e-06  -5.8812510497992193e-06  -6.6079319554723080e-06  -7.2457372156177106e-06  -7.8005496323882305e-06  -8.2778332921363044e-06  -8.6833676029275389e-06  -9.0238590666279348e-06  -9.3069224610783656e-06  -9.5389272870851902e-06  -9.7215170851236279e-06  -9.8501027786719195e-06  -9.9157366600737979e-06  -9.9082673597271637e-06  -9.8181733521130189e-06  -9.6369251953325579e-06  -9.3566782246776148e-06  -8.9697637138477708e-06  -8.4681759889342640e-06  -7.8431200130462327e-06  -7.0846259922669460e-06  -6.1812135044722802e-06  -5.1195943518897654e-06  -3.8843987605155841e-06  -2.4579732959257979e-06  -8.2029790778300248e-07  1.0508167350359405e-06  3.1784974542895366e-06  5.5861064140048539e-06  8.2893749562160222e-06  1.1302579346805865e-05  1.4642773154007133e-05  1.8131441369550195e-05  2.2037223871244424e-05  2.8207934767039177e-05  2.4270045102087541e-05  2.0712255078555664e-05  1.7266463980382405e-05  1.4118772195122575e-05  1.1257776787254648e-05  8.6736769464794881e-06  6.3538872444195432e-06  4.2768101208255290e-06  2.4200531859340400e-06  7.6139419162710786e-07  -7.1969981487296087e-07  -2.0416539384326092e-06  -3.2206912781754644e-06  -4.2708939353178963e-06  -5.2043551078959783e-06  -6.0313552048019684e-06  -6.7605622085082090e-06  -7.3992800357727441e-06  -7.9537464773408729e-06  -8.4296597190330530e-06  -8.8331544019790139e-06  -9.1718899214669290e-06  -9.4560816768645199e-06  -9.6950989906248601e-06  -9.8910255010601604e-06  -1.0036295711745459e-05  -1.0117847074037947e-05  -1.0122890417164877e-05  -1.0041024984994739e-05  -9.8637703243439774e-06  -9.5836228977670624e-06  -9.1932141808664187e-06  -8.6846605991809753e-06  -8.0490795414345168e-06  -7.2762261500020880e-06  -6.3542087645443391e-06  -5.2692636252484976e-06  -4.0055737398171708e-06  -2.5451840175205455e-06  -8.6806170736350028e-07  1.0475383990910306e-06  3.2236775453084287e-06  5.6818787218025459e-06  8.4352345856946718e-06  1.1494690599304594e-05  1.4873264098246083e-05  1.8389543125358381e-05  2.2306157055601410e-05  2.8420067776573842e-05  2.4476670926314516e-05  2.0903466359135621e-05  1.7433826378650741e-05  1.4255987786729522e-05  1.1361186630743840e-05  8.7420740182080839e-06  6.3881692182783723e-06  4.2794591196158708e-06  2.3945898124129923e-06  7.1188559030691153e-07  -7.8903674438160261e-07  -2.1267415933115691e-06  -3.3177818391354508e-06  -4.3766790669863716e-06  -5.3160155852434099e-06  -6.1465693912820876e-06  -6.8774890416348548e-06  -7.5165186350023673e-06  -8.0702284273906255e-06  -8.5444953317260921e-06  -8.9455485462198964e-06  -9.2814927203005085e-06  -9.5661104576293539e-06  -9.8133733520831844e-06  -1.0025757923108675e-05  -1.0190729660248025e-05  -1.0289195580946167e-05  -1.0305756486631607e-05  -1.0230140888615899e-05  -1.0054772109841539e-05  -9.7729949352984709e-06  -9.3779963890831238e-06  -8.8621378792732665e-06  -8.2165227238029148e-06  -7.4307018646799149e-06  -6.4924621781120641e-06  -5.3876779462241304e-06  -4.1002147869450959e-06  -2.6119425882975468e-06  -9.0290706787436795e-07  1.0481842759563902e-06  3.2624593968537137e-06  5.7599434941707442e-06  8.5516889373012318e-06  1.1646178855318864e-05  1.5053544198840079e-05  1.8590459220076719e-05  2.2515195435786644e-05  2.8569046447654842e-05  2.4622076621112093e-05  2.1038680790702127e-05  1.7552996431897585e-05  1.4354638625496918e-05  1.1436573579716328e-05  8.7931036056775925e-06  6.4152112855645595e-06  4.2840273709007009e-06  2.3789897531371139e-06  6.7888238895226285e-07  -8.3649687228180324e-07  -2.1857425793532065e-06  -3.3855828865985594e-06  -4.4508028046612822e-06  -5.3942925373975275e-06  -6.2271541596159815e-06  -6.9588649268592341e-06  -7.5974974759604718e-06  -8.1499293969809463e-06  -8.6222821890491136e-06  -9.0207395909050171e-06  -9.3529568425412498e-06  -9.6371681811396312e-06  -9.8933552506920616e-06  -1.0124382998572952e-05  -1.0310776380536388e-05  -1.0425175376225848e-05  -1.0450420630303159e-05  -1.0378068143676443e-05  -1.0202284190950681e-05  -9.9175381333237399e-06  -9.5176019696991825e-06  -8.9950494412569249e-06  -8.3409523253192400e-06  -7.5446785428574322e-06  -6.5937523546041810e-06  -5.4737700856594658e-06  -4.1683692115168688e-06  -2.6593123165799710e-06  -9.2673591637243510e-07  1.0502838069454013e-06  3.2921638173268725e-06  5.8178330830483371e-06  8.6368968190565495e-06  1.1756141745268753e-05  1.5183749968611239e-05  1.8735176724161986e-05  2.2665683436760636e-05  2.8654806965055610e-05  2.4706064987625097e-05  2.1117248565738645e-05  1.7622729470206206e-05  1.4412861494427841e-05  1.1481560887632330e-05  8.8240617615768951e-06  6.4321978464851517e-06  4.2877863935636665e-06  2.3707620491699230e-06  6.6021854309542872e-07  -8.6389855272031188e-07  -2.2201627900445737e-06  -3.4253708394220651e-06  -4.4944316544790221e-06  -5.4403870716930456e-06  -6.2744993532098002e-06  -7.0064063740074420e-06  -7.6443426178893479e-06  -8.1953838900845891e-06  -8.6659170494186035e-06  -9.0621303299264646e-06  -9.3904089159146433e-06  -9.6739465834501734e-06  -9.9376752373762008e-06  -1.0184799804925491e-05  -1.0390596482251540e-05  -1.0517281948007707e-05  -1.0546994623059395e-05  -1.0475009398206450e-05  -1.0297412167572296e-05  -1.0009578416841562e-05  -9.6056378993642330e-06  -9.0782362808396664e-06  -8.4183664913653925e-06  -7.6152364412605693e-06  -6.6561744325792912e-06  -5.5265828302828077e-06  -4.2099453933736389e-06  -2.6879530623167672e-06  -9.4079814542337131e-07  1.0522139377413219e-06  3.3110615565718339e-06  5.8540048080553992e-06  8.6897746116883715e-06  1.1824144738324208e-05  1.5264140435243585e-05  1.8824506655950482e-05  2.2758666264831136e-05  2.8677278991481362e-05  2.4728502813598366e-05  2.1138798214981935e-05  1.7642333360698581e-05  1.4429619282138347e-05  1.1494811539078443e-05  8.8334038798993662e-06  6.4374900841245823e-06  4.2891124665632196e-06  2.3683839075104079e-06  6.5452344423708660e-07  -8.7244782913824030e-07  -2.2310700755533472e-06  -3.4381388231192170e-06  -4.5085838364093631e-06  -5.4554803127781601e-06  -6.2901283463568154e-06  -7.0222019005965136e-06  -7.6599646762580432e-06  -8.2105420780516249e-06  -8.6803512846031330e-06  -9.0755839856339633e-06  -9.4014517146067988e-06  -9.6826825065114083e-06  -9.9490370176703019e-06  -1.0201694662969169e-