<?xml version="1.0"?>
<VTKFile type="UnstructuredGrid"  version="0.1"  >
<UnstructuredGrid>
<Piece  NumberOfPoints="1617" NumberOfCells="3072">
<Points>
<DataArray  type="Float64"  NumberOfComponents="3"  format="ascii">0 0 0  0.03125 0 0  0.0625 0 0  0.09375 0 0  0.125 0 0  0.15625 0 0  0.1875 0 0  0.21875 0 0  0.25 0 0  0.28125 0 0  0.3125 0 0  0.34375 0 0  0.375 0 0  0.40625 0 0  0.4375 0 0  0.46875 0 0  0.5 0 0  0.53125 0 0  0.5625 0 0  0.59375 0 0  0.625 0 0  0.65625 0 0  0.6875 0 0  0.71875 0 0  0.75 0 0  0.78125 0 0  0.8125 0 0  0.84375 0 0  0.875 0 0  0.90625 0 0  0.9375 0 0  0.96875 0 0  1 0 0  1.03125 0 0  1.0625 0 0  1.09375 0 0  1.125 0 0  1.15625 0 0  1.1875 0 0  1.21875 0 0  1.25 0 0  1.28125 0 0  1.3125 0 0  1.34375 0 0  1.375 0 0  1.40625 0 0  1.4375 0 0  1.46875 0 0  1.5 0 0  0 0.03125 0  0.03125 0.03125 0  0.0625 0.03125 0  0.09375 0.03125 0  0.125 0.03125 0  0.15625 0.03125 0  0.1875 0.03125 0  0.21875 0.03125 0  0.25 0.03125 0  0.28125 0.03125 0  0.3125 0.03125 0  0.34375 0.03125 0  0.375 0.03125 0  0.40625 0.03125 0  0.4375 0.03125 0  0.46875 0.03125 0  0.5 0.03125 0  0.53125 0.03125 0  0.5625 0.03125 0  0.59375 0.03125 0  0.625 0.03125 0  0.65625 0.03125 0  0.6875 0.03125 0  0.71875 0.03125 0  0.75 0.03125 0  0.78125 0.03125 0  0.8125 0.03125 0  0.84375 0.03125 0  0.875 0.03125 0  0.90625 0.03125 0  0.9375 0.03125 0  0.96875 0.03125 0  1 0.03125 0  1.03125 0.03125 0  1.0625 0.03125 0  1.09375 0.03125 0  1.125 0.03125 0  1.15625 0.03125 0  1.1875 0.03125 0  1.21875 0.03125 0  1.25 0.03125 0  1.28125 0.03125 0  1.3125 0.03125 0  1.34375 0.03125 0  1.375 0.03125 0  1.40625 0.03125 0  1.4375 0.03125 0  1.46875 0.03125 0  1.5 0.03125 0  0 0.0625 0  0.03125 0.0625 0  0.0625 0.0625 0  0.09375 0.0625 0  0.125 0.0625 0  0.15625 0.0625 0  0.1875 0.0625 0  0.21875 0.0625 0  0.25 0.0625 0  0.28125 0.0625 0  0.3125 0.0625 0  0.34375 0.0625 0  0.375 0.0625 0  0.40625 0.0625 0  0.4375 0.0625 0  0.46875 0.0625 0  0.5 0.0625 0  0.53125 0.0625 0  0.5625 0.0625 0  0.59375 0.0625 0  0.625 0.0625 0  0.65625 0.0625 0  0.6875 0.0625 0  0.71875 0.0625 0  0.75 0.0625 0  0.78125 0.0625 0  0.8125 0.0625 0  0.84375 0.0625 0  0.875 0.0625 0  0.90625 0.0625 0  0.9375 0.0625 0  0.96875 0.0625 0  1 0.0625 0  1.03125 0.0625 0  1.0625 0.0625 0  1.09375 0.0625 0  1.125 0.0625 0  1.15625 0.0625 0  1.1875 0.0625 0  1.21875 0.0625 0  1.25 0.0625 0  1.28125 0.0625 0  1.3125 0.0625 0  1.34375 0.0625 0  1.375 0.0625 0  1.40625 0.0625 0  1.4375 0.0625 0  1.46875 0.0625 0  1.5 0.0625 0  0 0.09375 0  0.03125 0.09375 0  0.0625 0.09375 0  0.09375 0.09375 0  0.125 0.09375 0  0.15625 0.09375 0  0.1875 0.09375 0  0.21875 0.09375 0  0.25 0.09375 0  0.28125 0.09375 0  0.3125 0.09375 0  0.34375 0.09375 0  0.375 0.09375 0  0.40625 0.09375 0  0.4375 0.09375 0  0.46875 0.09375 0  0.5 0.09375 0  0.53125 0.09375 0  0.5625 0.09375 0  0.59375 0.09375 0  0.625 0.09375 0  0.65625 0.09375 0  0.6875 0.09375 0  0.71875 0.09375 0  0.75 0.09375 0  0.78125 0.09375 0  0.8125 0.09375 0  0.84375 0.09375 0  0.875 0.09375 0  0.90625 0.09375 0  0.9375 0.09375 0  0.96875 0.09375 0  1 0.09375 0  1.03125 0.09375 0  1.0625 0.09375 0  1.09375 0.09375 0  1.125 0.09375 0  1.15625 0.09375 0  1.1875 0.09375 0  1.21875 0.09375 0  1.25 0.09375 0  1.28125 0.09375 0  1.3125 0.09375 0  1.34375 0.09375 0  1.375 0.09375 0  1.40625 0.09375 0  1.4375 0.09375 0  1.46875 0.09375 0  1.5 0.09375 0  0 0.125 0  0.03125 0.125 0  0.0625 0.125 0  0.09375 0.125 0  0.125 0.125 0  0.15625 0.125 0  0.1875 0.125 0  0.21875 0.125 0  0.25 0.125 0  0.28125 0.125 0  0.3125 0.125 0  0.34375 0.125 0  0.375 0.125 0  0.40625 0.125 0  0.4375 0.125 0  0.46875 0.125 0  0.5 0.125 0  0.53125 0.125 0  0.5625 0.125 0  0.59375 0.125 0  0.625 0.125 0  0.65625 0.125 0  0.6875 0.125 0  0.71875 0.125 0  0.75 0.125 0  0.78125 0.125 0  0.8125 0.125 0  0.84375 0.125 0  0.875 0.125 0  0.90625 0.125 0  0.9375 0.125 0  0.96875 0.125 0  1 0.125 0  1.03125 0.125 0  1.0625 0.125 0  1.09375 0.125 0  1.125 0.125 0  1.15625 0.125 0  1.1875 0.125 0  1.21875 0.125 0  1.25 0.125 0  1.28125 0.125 0  1.3125 0.125 0  1.34375 0.125 0  1.375 0.125 0  1.40625 0.125 0  1.4375 0.125 0  1.46875 0.125 0  1.5 0.125 0  0 0.15625 0  0.03125 0.15625 0  0.0625 0.15625 0  0.09375 0.15625 0  0.125 0.15625 0  0.15625 0.15625 0  0.1875 0.15625 0  0.21875 0.15625 0  0.25 0.15625 0  0.28125 0.15625 0  0.3125 0.15625 0  0.34375 0.15625 0  0.375 0.15625 0  0.40625 0.15625 0  0.4375 0.15625 0  0.46875 0.15625 0  0.5 0.15625 0  0.53125 0.15625 0  0.5625 0.15625 0  0.59375 0.15625 0  0.625 0.15625 0  0.65625 0.15625 0  0.6875 0.15625 0  0.71875 0.15625 0  0.75 0.15625 0  0.78125 0.15625 0  0.8125 0.15625 0  0.84375 0.15625 0  0.875 0.15625 0  0.90625 0.15625 0  0.9375 0.15625 0  0.96875 0.15625 0  1 0.15625 0  1.03125 0.15625 0  1.0625 0.15625 0  1.09375 0.15625 0  1.125 0.15625 0  1.15625 0.15625 0  1.1875 0.15625 0  1.21875 0.15625 0  1.25 0.15625 0  1.28125 0.15625 0  1.3125 0.15625 0  1.34375 0.15625 0  1.375 0.15625 0  1.40625 0.15625 0  1.4375 0.15625 0  1.46875 0.15625 0  1.5 0.15625 0  0 0.1875 0  0.03125 0.1875 0  0.0625 0.1875 0  0.09375 0.1875 0  0.125 0.1875 0  0.15625 0.1875 0  0.1875 0.1875 0  0.21875 0.1875 0  0.25 0.1875 0  0.28125 0.1875 0  0.3125 0.1875 0  0.34375 0.1875 0  0.375 0.1875 0  0.40625 0.1875 0  0.4375 0.1875 0  0.46875 0.1875 0  0.5 0.1875 0  0.53125 0.1875 0  0.5625 0.1875 0  0.59375 0.1875 0  0.625 0.1875 0  0.65625 0.1875 0  0.6875 0.1875 0  0.71875 0.1875 0  0.75 0.1875 0  0.78125 0.1875 0  0.8125 0.1875 0  0.84375 0.1875 0  0.875 0.1875 0  0.90625 0.1875 0  0.9375 0.1875 0  0.96875 0.1875 0  1 0.1875 0  1.03125 0.1875 0  1.0625 0.1875 0  1.09375 0.1875 0  1.125 0.1875 0  1.15625 0.1875 0  1.1875 0.1875 0  1.21875 0.1875 0  1.25 0.1875 0  1.28125 0.1875 0  1.3125 0.1875 0  1.34375 0.1875 0  1.375 0.1875 0  1.40625 0.1875 0  1.4375 0.1875 0  1.46875 0.1875 0  1.5 0.1875 0  0 0.21875 0  0.03125 0.21875 0  0.0625 0.21875 0  0.09375 0.21875 0  0.125 0.21875 0  0.15625 0.21875 0  0.1875 0.21875 0  0.21875 0.21875 0  0.25 0.21875 0  0.28125 0.21875 0  0.3125 0.21875 0  0.34375 0.21875 0  0.375 0.21875 0  0.40625 0.21875 0  0.4375 0.21875 0  0.46875 0.21875 0  0.5 0.21875 0  0.53125 0.21875 0  0.5625 0.21875 0  0.59375 0.21875 0  0.625 0.21875 0  0.65625 0.21875 0  0.6875 0.21875 0  0.71875 0.21875 0  0.75 0.21875 0  0.78125 0.21875 0  0.8125 0.21875 0  0.84375 0.21875 0  0.875 0.21875 0  0.90625 0.21875 0  0.9375 0.21875 0  0.96875 0.21875 0  1 0.21875 0  1.03125 0.21875 0  1.0625 0.21875 0  1.09375 0.21875 0  1.125 0.21875 0  1.15625 0.21875 0  1.1875 0.21875 0  1.21875 0.21875 0  1.25 0.21875 0  1.28125 0.21875 0  1.3125 0.21875 0  1.34375 0.21875 0  1.375 0.21875 0  1.40625 0.21875 0  1.4375 0.21875 0  1.46875 0.21875 0  1.5 0.21875 0  0 0.25 0  0.03125 0.25 0  0.0625 0.25 0  0.09375 0.25 0  0.125 0.25 0  0.15625 0.25 0  0.1875 0.25 0  0.21875 0.25 0  0.25 0.25 0  0.28125 0.25 0  0.3125 0.25 0  0.34375 0.25 0  0.375 0.25 0  0.40625 0.25 0  0.4375 0.25 0  0.46875 0.25 0  0.5 0.25 0  0.53125 0.25 0  0.5625 0.25 0  0.59375 0.25 0  0.625 0.25 0  0.65625 0.25 0  0.6875 0.25 0  0.71875 0.25 0  0.75 0.25 0  0.78125 0.25 0  0.8125 0.25 0  0.84375 0.25 0  0.875 0.25 0  0.90625 0.25 0  0.9375 0.25 0  0.96875 0.25 0  1 0.25 0  1.03125 0.25 0  1.0625 0.25 0  1.09375 0.25 0  1.125 0.25 0  1.15625 0.25 0  1.1875 0.25 0  1.21875 0.25 0  1.25 0.25 0  1.28125 0.25 0  1.3125 0.25 0  1.34375 0.25 0  1.375 0.25 0  1.40625 0.25 0  1.4375 0.25 0  1.46875 0.25 0  1.5 0.25 0  0 0.28125 0  0.03125 0.28125 0  0.0625 0.28125 0  0.09375 0.28125 0  0.125 0.28125 0  0.15625 0.28125 0  0.1875 0.28125 0  0.21875 0.28125 0  0.25 0.28125 0  0.28125 0.28125 0  0.3125 0.28125 0  0.34375 0.28125 0  0.375 0.28125 0  0.40625 0.28125 0  0.4375 0.28125 0  0.46875 0.28125 0  0.5 0.28125 0  0.53125 0.28125 0  0.5625 0.28125 0  0.59375 0.28125 0  0.625 0.28125 0  0.65625 0.28125 0  0.6875 0.28125 0  0.71875 0.28125 0  0.75 0.28125 0  0.78125 0.28125 0  0.8125 0.28125 0  0.84375 0.28125 0  0.875 0.28125 0  0.90625 0.28125 0  0.9375 0.28125 0  0.96875 0.28125 0  1 0.28125 0  1.03125 0.28125 0  1.0625 0.28125 0  1.09375 0.28125 0  1.125 0.28125 0  1.15625 0.28125 0  1.1875 0.28125 0  1.21875 0.28125 0  1.25 0.28125 0  1.28125 0.28125 0  1.3125 0.28125 0  1.34375 0.28125 0  1.375 0.28125 0  1.40625 0.28125 0  1.4375 0.28125 0  1.46875 0.28125 0  1.5 0.28125 0  0 0.3125 0  0.03125 0.3125 0  0.0625 0.3125 0  0.09375 0.3125 0  0.125 0.3125 0  0.15625 0.3125 0  0.1875 0.3125 0  0.21875 0.3125 0  0.25 0.3125 0  0.28125 0.3125 0  0.3125 0.3125 0  0.34375 0.3125 0  0.375 0.3125 0  0.40625 0.3125 0  0.4375 0.3125 0  0.46875 0.3125 0  0.5 0.3125 0  0.53125 0.3125 0  0.5625 0.3125 0  0.59375 0.3125 0  0.625 0.3125 0  0.65625 0.3125 0  0.6875 0.3125 0  0.71875 0.3125 0  0.75 0.3125 0  0.78125 0.3125 0  0.8125 0.3125 0  0.84375 0.3125 0  0.875 0.3125 0  0.90625 0.3125 0  0.9375 0.3125 0  0.96875 0.3125 0  1 0.3125 0  1.03125 0.3125 0  1.0625 0.3125 0  1.09375 0.3125 0  1.125 0.3125 0  1.15625 0.3125 0  1.1875 0.3125 0  1.21875 0.3125 0  1.25 0.3125 0  1.28125 0.3125 0  1.3125 0.3125 0  1.34375 0.3125 0  1.375 0.3125 0  1.40625 0.3125 0  1.4375 0.3125 0  1.46875 0.3125 0  1.5 0.3125 0  0 0.34375 0  0.03125 0.34375 0  0.0625 0.34375 0  0.09375 0.34375 0  0.125 0.34375 0  0.15625 0.34375 0  0.1875 0.34375 0  0.21875 0.34375 0  0.25 0.34375 0  0.28125 0.34375 0  0.3125 0.34375 0  0.34375 0.34375 0  0.375 0.34375 0  0.40625 0.34375 0  0.4375 0.34375 0  0.46875 0.34375 0  0.5 0.34375 0  0.53125 0.34375 0  0.5625 0.34375 0  0.59375 0.34375 0  0.625 0.34375 0  0.65625 0.34375 0  0.6875 0.34375 0  0.71875 0.34375 0  0.75 0.34375 0  0.78125 0.34375 0  0.8125 0.34375 0  0.84375 0.34375 0  0.875 0.34375 0  0.90625 0.34375 0  0.9375 0.34375 0  0.96875 0.34375 0  1 0.34375 0  1.03125 0.34375 0  1.0625 0.34375 0  1.09375 0.34375 0  1.125 0.34375 0  1.15625 0.34375 0  1.1875 0.34375 0  1.21875 0.34375 0  1.25 0.34375 0  1.28125 0.34375 0  1.3125 0.34375 0  1.34375 0.34375 0  1.375 0.34375 0  1
[...]
<PointData  Scalars="f_33"> 
<DataArray  type="Float64"  Name="f_33"  format="ascii">2.0734411683287675e-05  2.1409712425376489e-05  2.1788000045485448e-05  2.1739185240034300e-05  2.1398777025068204e-05  2.0904831321393419e-05  2.0314582536008193e-05  1.9669921122714969e-05  1.9000391031340738e-05  1.8324994908125139e-05  1.7654820551406354e-05  1.6995443847083309e-05  1.6348891653725965e-05  1.5715080484178270e-05  1.5092764876365998e-05  1.4480098194100072e-05  1.3874927825815768e-05  1.3274933651320878e-05  1.2677693700258122e-05  1.2080736542374572e-05  1.1481620131027262e-05  1.0878060316428840e-05  1.0268116356658874e-05  9.6504241420212729e-06  9.0244518336862092e-06  8.3907408537406861e-06  7.7510918110712281e-06  7.1086621702136166e-06  6.4679587449738507e-06  5.8347284643584882e-06  5.2157690884245276e-06  4.6186926148293833e-06  4.0516757779904536e-06  3.5232242328171253e-06  3.0419607189237028e-06  2.6164231147319617e-06  2.2548237141135628e-06  1.9646844041461257e-06  1.7522049327597975e-06  1.6212483729652071e-06  1.5716871393409805e-06  1.5974551036672305e-06  1.6833066092897905e-06  1.8031726320739796e-06  1.9113193984274409e-06  1.9958235362198265e-06  1.7422471175122387e-06  1.1390467095901113e-06  6.1011386583427165e-07  2.0418623502924492e-05  2.1229826104282250e-05  2.1726734043028009e-05  2.1712647940715880e-05  2.1346257592440703e-05  2.0839951904728667e-05  2.0242279775160254e-05  1.9593415729453873e-05  1.8922996847174467e-05  1.8249593429069896e-05  1.7583601531462944e-05  1.6929858687270313e-05  1.6289740424063945e-05  1.5662660048286162e-05  1.5047022164004971e-05  1.4440756246262173e-05  1.3841573204993973e-05  1.3247066516230102e-05  1.2654747387810069e-05  1.2062074965194484e-05  1.1466521463737501e-05  1.0865695675430923e-05  1.0257532425193669e-05  9.6405380592792256e-06  9.0140642380772552e-06  8.3785686094927052e-06  7.7358166720407432e-06  7.0889872586315566e-06  6.4426629035562939e-06  5.8027098889368182e-06  5.1760735007827909e-06  4.5705261975651266e-06  3.9944077956234644e-06  3.4563879776403768e-06  2.9652637357366896e-06  2.5297786090426190e-06  2.1584127347336095e-06  1.8590529598704168e-06  1.6383834377985312e-06  1.5008661474718359e-06  1.4470062017842388e-06  1.4712925230622068e-06  1.5585533162405068e-06  1.6828086336590853e-06  1.7938450834589214e-06  1.8903509553606359e-06  1.6322253608525047e-06  9.7227409538895387e-07  2.4328100741533254e-07  2.0177163270766122e-05  2.1086484867262701e-05  2.1709655810581938e-05  2.1776377726402304e-05  2.1385237639878342e-05  2.0856644457874373e-05  2.0233566562430808e-05  1.9561538635348886e-05  1.8873463388836146e-05  1.8188475579073023e-05  1.7516353687878071e-05  1.6860826433972957e-05  1.6222075512404775e-05  1.5598466055180422e-05  1.4987590165206559e-05  1.4386798083589894e-05  1.3793405042320944e-05  1.3204726733174177e-05  1.2618050765066101e-05  1.2030614226349028e-05  1.1439632587857432e-05  1.0842407766247575e-05  1.0236526133852314e-05  9.6201362757319635e-06  8.9922724725338454e-06  8.3531698934753624e-06  7.7045102184865324e-06  7.0495473456199825e-06  6.3930896578524869e-06  5.7413484281933322e-06  5.1016897086987202e-06  4.4823415337839053e-06  3.8921077210149111e-06  3.3401264435507441e-06  2.8356889390519617e-06  2.3881024259415397e-06  2.0065355321029441e-06  1.6997357125935846e-06  1.4754206289852274e-06  1.3391773660844645e-06  1.2924763336341917e-06  1.3302578594631918e-06  1.4364575775720864e-06  1.5824557230304315e-06  1.7114753062633328e-06  1.8153380520609285e-06  1.4928384496609597e-06  7.2748000162575576e-07  -1.8034754407641876e-07  2.0038681630939226e-05  2.0991431367615452e-05  2.1709200300041024e-05  2.1858400545697697e-05  2.1463984430120484e-05  2.0921456815222878e-05  2.0270714816937555e-05  1.9569284999699495e-05  1.8855614314091866e-05  1.8150965952107907e-05  1.7465461550861485e-05  1.6802176112663911e-05  1.6160201177497432e-05  1.5536757563264119e-05  1.4928438070285062e-05  1.4331806041028433e-05  1.3743588053637991e-05  1.3160653205942177e-05  1.2579912976010574e-05  1.1998229257348270e-05  1.1412389241214783e-05  1.0819187335950178e-05  1.0215635138258311e-05  9.5992925836965970e-06  8.9686771991262394e-06  8.3236748265654991e-06  7.6658609456027214e-06  6.9986580242235936e-06  6.3272973643941072e-06  5.6586058359420612e-06  5.0006780621522598e-06  4.3625111030834500e-06  3.7536717211478271e-06  3.1840430392813016e-06  2.6636643033730268e-06  2.2026367018406378e-06  1.8110125741346827e-06  1.4985255934372097e-06  1.2739193294965281e-06  1.1436584819760473e-06  1.1095741062731878e-06  1.1658866711330712e-06  1.2939148042101323e-06  1.4596263519484405e-06  1.5966951822331255e-06  1.6839841896626326e-06  1.2928674653064556e-06  4.2694040557875900e-07  -5.7070777289563667e-07  2.0005314768957619e-05  2.0982753508502162e-05  2.1756598086735011e-05  2.1957875333177598e-05  2.1571369078272556e-05  2.1021341164322637e-05  2.0345627083894860e-05  1.9614757505217666e-05  1.8872686098260360e-05  1.8143949648020898e-05  1.7440023705100314e-05  1.6764043008586625e-05  1.6114434001340605e-05  1.5487474533927360e-05  1.4878804190552594e-05  1.4284154647899534e-05  1.3699575881396252e-05  1.3121386524862640e-05  1.2546010119809313e-05  1.1969806823536001e-05  1.1388980105998609e-05  1.0799621241110441e-05  1.0197934364183197e-05  9.5806469169284258e-06  8.9455520896328197e-06  8.2920698663672908e-06  7.6216842115708949e-06  6.9381399785343318e-06  6.2473572383212845e-06  5.5571068882862312e-06  4.8765505144528567e-06  4.2157619730585151e-06  3.5853252889629143e-06  2.9960609997868628e-06  2.4588842709479614e-06  1.9847463499642260e-06  1.5845471496856771e-06  1.2688401933496696e-06  1.0470459268138439e-06  9.2591981370335210e-07  9.0679902483278014e-07  9.8209996802100830e-07  1.1293973459533836e-06  1.3086113298012834e-06  1.4448662786453800e-06  1.5086350171245974e-06  1.0649142545766355e-06  1.3841457684453140e-07  -8.9869528953840774e-07  2.0054662888455697e-05  2.1045332395658110e-05  2.1848525730536960e-05  2.2078959756093231e-05  2.1700854739995964e-05  2.1144717845081269e-05  2.0447868069287136e-05  1.9690323852792283e-05  1.8920437930103817e-05  1.8166457404893369e-05  1.7441774988486245e-05  1.6750160444271676e-05  1.6089839626065324e-05  1.5456463769692966e-05  1.4844896602888207e-05  1.4250112750154808e-05  1.3667495710304363e-05  1.3092787999969585e-05  1.2521876666709574e-05  1.1950544299298083e-05  1.1374290395562967e-05  1.0788320062292715e-05  1.0187782589059991e-05  9.5682936544354990e-06  8.9266798748965667e-06  8.2617733809268732e-06  7.5750232522921488e-06  6.8707346231029095e-06  6.1558813159709885e-06  5.4395867367478409e-06  4.7324533260126211e-06  4.0459205796364833e-06  3.3917738974431168e-06  2.7818515783229668e-06  2.2279285629275828e-06  1.7416953410592835e-06  1.3346846486209060e-06  1.0179330435509675e-06  8.0106332595587297e-07  6.9051775923084288e-07  6.8647201970278699e-07  7.7897322549689096e-07  9.4173131005140229e-07  1.1294662610349175e-06  1.2615107341886451e-06  1.3048886420042539e-06  8.2590974707187148e-07  -1.3384235619444765e-07  -1.1876707645060360e-06  2.0162700055176074e-05  2.1160394431544542e-05  2.1977943830122534e-05  2.2223231265889120e-05  2.1848860016546254e-05  2.1285456752901367e-05  2.0570453011639605e-05  1.9789289737931838e-05  1.8993682489897160e-05  1.8215321037641266e-05  1.7469581248308658e-05  1.6761180049284324e-05  1.6088495110626623e-05  1.5446848526672734e-05  1.4830538638004579e-05  1.4233913631012419e-05  1.3651763315365839e-05  1.3079292149693173e-05  1.2511866164573428e-05  1.1944676143109701e-05  1.1372446463670256e-05  1.0789331929673419e-05  1.0189153059331086e-05  9.5660676196784447e-06  8.9156220556469442e-06  8.2359157900503587e-06  7.5284795947382242e-06  6.7985473942711344e-06  6.0546611462154387e-06  5.3078153489884684e-06  4.5704635683862586e-06  3.8556592323858732e-06  3.1764736162845895e-06  2.5457092300154082e-06  1.9758392230056780e-06  1.4790446231864027e-06  1.0671646094003581e-06  7.5132010423764524e-07  5.4088192419530235e-07  4.4151788031567604e-07  4.5188054444104541e-07  5.5956839515276867e-07  7.3490473124293313e-07  9.2873616195213903e-07  1.0569781275640902e-06  1.0859774868081644e-06  5.8526590874613156e-07  -3.9124461688545671e-07  -1.4511427592262037e-06  2.0309164839204357e-05  2.1310609024161957e-05  2.2134604100050448e-05  2.2386156161968944e-05  2.2010780849340768e-05  2.1438768853833620e-05  2.0707566595976026e-05  1.9905501792911933e-05  1.9086875669459927e-05  1.8286150805325592e-05  1.7520472635207537e-05  1.6795588550252870e-05  1.6110223541983128e-05  1.5459582431195214e-05  1.4837577191299781e-05  1.4238061998889937e-05  1.3655327732360480e-05  1.3084116099399800e-05  1.2519340609653736e-05  1.1955652298834359e-05  1.1386994007149515e-05  1.0806335972008296e-05  1.0205854576078049e-05  9.5777868948213637e-06  8.9159520947546241e-06  8.2175222702791204e-06  7.4843254493062862e-06  6.7231096742473821e-06  5.9447302597115024e-06  5.1627176823294477e-06  4.3918092563983898e-06  3.6468373130721576e-06  2.9420997254706385e-06  2.2911500446825864e-06  1.7068547649663438e-06  1.2015301961873901e-06  7.8694027620224185e-07  4.7390130559754595e-07  2.7116649037840375e-07  1.8334513062913841e-07  2.0746185539627710e-07  3.2887374674982553e-07  5.1518173127727165e-07  7.1453216589216392e-07  8.4095614321383762e-07  8.6123087933671021e-07  3.4796443784993356e-07  -6.3623737976751022e-07  -1.6974367545297092e-06  2.0477763124381016e-05  2.1481306025478233e-05  2.2307701424903113e-05  2.2560561505779807e-05  2.2181004121209687e-05  2.1599576171928064e-05  2.0853612518858244e-05  2.0033140120669665e-05  1.9194405227009784e-05  1.8373941021170859e-05  1.7590368565073236e-05  1.6850396641992325e-05  1.6153158626616223e-05  1.5493858362614445e-05  1.4866141170056650e-05  1.4263466021700752e-05  1.3679705616295278e-05  1.3109219044448471e-05  1.2546568200069804e-05  1.1985982233387448e-05  1.1420703454807774e-05  1.0842438719011714e-05  1.0241352151711477e-05  9.6071028841492266e-06  8.9310915458050617e-06  8.2092742826214418e-06  7.4441748941121578e-06  6.6450180455209134e-06  5.8260734725723981e-06  5.0042443583968473e-06  4.1969489156566277e-06  3.4207929101640248e-06  2.6910272296844074e-06  2.0215505587285168e-06  1.4251792645791542e-06  9.1393552933716768e-07  4.9911710767025413e-07  1.9089991023479418e-07  -2.8353754991229478e-09  -7.8667074633224443e-08  -4.1136330630614108e-08  9.3195103164310771e-08  2.8982974133036864e-07  4.9506512785327977e-07  6.2189923231363480e-07  6.3780718071068971e-07  1.1783715737504074e-07  -8.6919015631073610e-07  -1.9295885137539257e-06  2.0655220265631924e-05  2.1660042630337380e-05  2.2486841622735419e-05  2.2738384219830673e-05  2.2353026889263369e-05  2.1762075760479026e-05  2.1002782260277936e-05  2.0166355071151324e-05  1.9310478507939957e-05  1.8473212677687274e-05  1.7674368097929206e-05  1.6921472028979193e-05  1.6214045465292512e-05  1.5547334747135185e-05  1.4914779548569989e-05  1.4309494607795153e-05  1.3724975763456653e-05  1.3155249210751121e-05  1.2594627298205061e-05  1.2037089749026448e-05  1.1475379978644030e-05  1.0899974375140999e-05  1.0298616656584759e-05  9.6574168512070177e-06  8.9642130147641707e-06  8.2132868435559141e-06  7.4086222825157599e-06  6.5635575222731546e-06  5.6974053633382024e-06  4.8314158485517318e-06  3.9858958743258547e-06  3.1788922443056362e-06  2.4260253878241165e-06  1.7409136489950393e-06  1.1357631625981410e-06  6.2184382724460318e-07  2.0963441607611436e-07  -9.1579189427815907e-08  -2.7492756360225550e-07  -3.3818226165404784e-07  -2.8729135249261378e-07  -1.4039163635183642e-07  6.6433264955985394e-08  2.7820401875257533e-07  4.0732620165136491e-07  4.2191428954138597e-07  -1.0114775572917200e-07  -1.0884632315534581e-06  -2.1472088351461347e-06  2.0830468094900280e-05  2.1836172931968881e-05  2.2662478394372047e-05  2.2911523052879208e-05  2.2519910483238153e-05  2.1919980834170419e-05  2.1148997388191336e-05  2.0299096977951226e-05  1.9429043310825598e-05  1.8578047647939882e-05  1.7766862257441905e-05  1.7003680646055576e-05  1.6288360183566878e-05  1.5616195082903676e-05  1.4980442417159123e-05  1.4373884022542275e-05  1.3789631474967226e-05  1.3221364951470931e-05  1.2663205556580635e-05  1.2109068971164163e-05  1.1551557784084246e-05  1.0980165209686653e-05  1.0379861124738265e-05  9.7317452231580468e-06  9.0180851598108309e-06  8.2307398784227879e-06  7.3766904213014242e-06  6.4762351330196124e-06  5.5560588896140704e-06  4.6426560075998491e-06  3.7589130904568180e-06  2.9234268411011494e-06  2.1512074469471835e-06  1.4547668315189344e-06  8.4509193424624299e-07  3.3228858248089921e-07  -7.4238628620721845e-08  -3.6622401457563688e-07  -5.3782803724400491e-07  -5.8792076683108338e-07  -5.2364217398807996e-07  -3.6437514802047566e-07  -1.4738363871455340e-07  7.1459771143181545e-08  2.0419885923074859e-07  2.1944632322035178e-07  -3.0452955525739464e-07  -1.2908556822319961e-06  -2.3476844563429619e-06  2.0994122919419725e-05  2.2000522867756751e-05  2.2826032564581038e-05  2.3072272669841159e-05  2.2674728106937095e-05  2.2066863333825723e-05  2.1286035957922054e-05  2.0425155694363555e-05  1.9543823586497678e-05  1.8682143387649293e-05  1.7861612490120007e-05  1.7090965510110628e-05  1.6370349905393323e-05  1.5695110181952000e-05  1.5058339844822382e-05  1.4452490768048379e-05  1.3870251098587677e-05  1.3304869939273186e-05  1.2750237280740624e-05  1.2200301047123592e-05  1.1648034390966665e-05  1.1082539870958075e-05  1.0486048013952915e-05  9.8324426048089233e-06  9.0947380313370784e-06  8.2612108331236046e-06  7.3450267292836237e-06  6.3783753302522014e-06  5.3983185008176979e-06  4.4367892871770826e-06  3.5178680720866049e-06  2.6590165228138139e-06  1.8732784672362903e-06  1.1711641200465760e-06  5.6192682125928638e-07  5.4254322188373094e-08  -3.4361153643120828e-07  -6.2440533896930469e-07  -7.8321499472011220e-07  -8.1983190077411809e-07  -7.4233935116154506e-07  -5.7106111242902292e-07  -3.4411619612389181e-07  -1.1799993705773510e-07  1.9103831332740356e-08  3.6174438068377996e-08  -4.8745176761505100e-07  -1.4722101353189309e-06  -2.5271449610615918e-06  2.1138214441673738e-05  2.2145221051542507e-05  2.2969955080993408e-05  2.3213601194206075e-05  2.2810931395054364e-05  2.2196492393194308e-05  2.1407779855748623e-05  2.0538354027894856e-05  1.9648479718596816e-05  1.8778965298421585e-05  1.7951904462575366e-05  1.7176482525288605e-05  1.6453112157030482e-05  1.5777212825798941e-05  1.5141764618744367e-05  1.4538931398183060e-05  1.3960962525209074e-05  1.3400572032790829e-05  1.2851249955073440e-05  1.2306830111562097e-05  1.1761156899987436e-05  1.1203908336795382e-05  1.0615898983419051e-05  9.9604311221760172e-06  9.1945238185737153e-06  8.3014425840910638e-06  7.3069815326315469e-06  6.2633555031913626e-06  5.2209533313874658e-06  4.2153046015674148e-06  3.2685531273803782e-06  2.3945582611494641e-06  1.6029608288866168e-06  9.0160980072526598e-07  2.9782083368840444e-07  -2.0111076009916525e-07  -5.8797532004363360e-07  -8.5632882573464652e-07  -1.0019782131007651e-06  -1.0254005843931317e-06  -9.3536054601337740e-07  -7.5284557293247607e-07  -5.1656449744699593e-07  -2.8343297631644885e-07  -1.4177201649264218e-07  -1.2233633520156490e-07  -6.4495157015471654e-07  -1.6279771424921268e-06  -2.6811951141300836e-06  2.1256096274759569e-05  2.2263661429658863e-05  2.3087811693772726e-05  2.3329371454622635e-05  2.2922657744733220e-05  2.2303164066529557e-05  2.1508529195219029e-05  2.0632844726930059e-05  1.9736895859594104e-05  1.8862043926052726e-05  1.8030859840340023e-05  1.7252910828766437e-05  1.6528866218932606e-05  1.5854268955126251e-05  1.5222080416789102e-05  1.4624293628156299e-05  1.4052808493205014e-05  1.3499812117523767e-05  1.2958188504783716e-05  1.2421248478530254e-05  1.1883709092480735e-05  1.1336740979561544e-05  1.0763929147016279e-05  1.0112782190423178e-05  9.3135220906871878e-06  8.3435919891091119e-06  7.2527014623423110e-06  6.1251402622126109e-06  5.0253434409545291e-06  3.9865555960899637e-06  3.0239863907831312e-06  2.1453727411935360e-06  1.3561411558483983e-06  6.6148649052932132e-07  6.7088255870051091e-08  -4.2079022743646133e-07  -7.9563486639661779e-07  -1.0515251586541127e-06  -1.1847179842018749e-06  -1.1961214995385084e-06  -1.0949327861180946e-06  -9.0256334247860819e-07  -6.5809799440459611e-07  -4.1871766714964757e-07  -2.7281531279703918e-07  -2.5095555671626879e-07  -7.7231401322778591e-07  -1.7537081356367699e-06  -2.8054819491483935e-06  2.1342470252562605e-05  2.2350556033304758e-05  2.3174401681015549e-05  2.3414545197306304e-05  2.3005005949520310e-05  2.2382022382457108e-05  2.1583349555727943e-05  2.0703480519796555e-05  1.9803583117037227e-05  1.8925429692316870e-05  1.8091954680502743e-05  1.7313035370326773e-05  1.6589579690419480e-05  1.5917295547670467e-05  1.5289230785275407e-05  1.4697375408905922e-05  1.4133499440691422e-05  1.3589504423531138e-05  1.3057728977612196e-05  1.2530727787587208e-05  1.2003044806484261e-05  1.1467048089732887e-05  1.0916377766565925e-05  1.0275588601099273e-05  9.4376775042031753e-06  8.3753167612975239e-06  7.1742692036382862e-06  5.9663620870277195e-06  4.8256715256246768e-06  3.7716772122313659e-06  2.8076313524194704e-06  1.9343646298414696e-06  1.1537732110920845e-06  4.6931556845260659e-07  -1.1419128656854762e-07  -5.9093888485542678e-07  -9.5468824697293706e-07  -1.1997263848108279e-06  -1.3225057346113497e-06  -1.3241435865605928e-06  -1.2140647273886429e-06  -1.0139153768153747e-06  -7.6299292888406259e-07  -5.1862849941697710e-07  -3.6924318196324040e-07  -3.4527527486794766e-07  -8.6542590313142971e-07  -1.8454719204449627e-06  -2.8961398434609154e-06  2.1393465752177426e-05  2.2402031466785479e-05  2.3225892861912767e-05  2.3465373514707905e-05  2.3054283741265672e-05  2.2429358988699053e-05  2.1628420060087879e-05  2.0746216592163690e-05  1.9844154263685534e-05  1.8964267206298378e-05  1.8129725716011247e-05  1.7350619128358236e-05  1.6628035012962985e-05  1.5957832420289992e-05  1.5333185815610291e-05  1.4746190279316294e-05  1.4188691747834150e-05  1.3652634157550280e-05  1.3130220237821969e-05  1.2613685106550416e-05  1.2096330930757973e-05  1.1570757063050737e-05  1.1044471882675114e-05  1.0411500976474750e-05  9.5368064338343849e-06  8.3904318122550365e-06  7.0832968670557282e-06  5.8150643719604473e-06  4.6596212951821452e-06  3.6087246908076004e-06  2.6532806669668572e-06  1.7899333925074528e-06  1.0192031190648737e-06  3.4416210570595971e-07  -2.3043504657404166e-07  -6.9875753231251586e-07  -1.0545419618459867e-06  -1.2920758969464430e-06  -1.4078444071895890e-06  -1.4030287490129426e-06  -1.2871426852644383e-06  -1.0819352124914655e-06  -8.2680100494981627e-07  -5.7914148731503392e-07  -4.2738231790230994e-07  -4.0189727170385502e-07  -9.2109104034363964e-07  -1.9001934846836468e-06  -2.9501372304477328e-06  2.1406728017180436e-05  2.2415728444543039e-05  2.3239945237054019e-05  2.3479556928489474e-05  2.3068211004912917e-05  2.2442864048084278e-05  2.1641337564751703e-05  2.0758481088071073e-05  1.9855784412109491e-05  1.8975382841328741e-05  1.8140536405048078e-05  1.7361417380260428e-05  1.6639184733204836e-05  1.5969760387372329e-05  1.5346376502922316e-05  1.4761185857029831e-05  1.4206097628896523e-05  1.3673129525121613e-05  1.3154504031407357e-05  1.2642545024758579e-05  1.2129886042130757e-05  1.1610051210612051e-05  1.1096576448981654e-05  1.0472792117475969e-05  9.5763399884128480e-06  8.4002065625864978e-06  7.0440005272104594e-06  5.7418497878336660e-06  4.5894618653471928e-06  3.5454061516355652e-06  2.5962955835421839e-06  1.7383050512296846e-06  9.7216378573451395e-07  3.0113693614337611e-07  -2.6987069915922977e-07  -7.3492627037889663e-07  -1.0877041274205222e-06  -1.3224586993325644e-06  -1.4356627217453325e-06  -1.4285000514004749e-06  -1.3104971316357764e-06  -1.1034