<?xml version="1.0"?>
<VTKFile type="UnstructuredGrid"  version="0.1"  >
<UnstructuredGrid>
<Piece  NumberOfPoints="1617" NumberOfCells="3072">
<Points>
<DataArray  type="Float64"  NumberOfComponents="3"  format="ascii">0 0 0  0.03125 0 0  0.0625 0 0  0.09375 0 0  0.125 0 0  0.15625 0 0  0.1875 0 0  0.21875 0 0  0.25 0 0  0.28125 0 0  0.3125 0 0  0.34375 0 0  0.375 0 0  0.40625 0 0  0.4375 0 0  0.46875 0 0  0.5 0 0  0.53125 0 0  0.5625 0 0  0.59375 0 0  0.625 0 0  0.65625 0 0  0.6875 0 0  0.71875 0 0  0.75 0 0  0.78125 0 0  0.8125 0 0  0.84375 0 0  0.875 0 0  0.90625 0 0  0.9375 0 0  0.96875 0 0  1 0 0  1.03125 0 0  1.0625 0 0  1.09375 0 0  1.125 0 0  1.15625 0 0  1.1875 0 0  1.21875 0 0  1.25 0 0  1.28125 0 0  1.3125 0 0  1.34375 0 0  1.375 0 0  1.40625 0 0  1.4375 0 0  1.46875 0 0  1.5 0 0  0 0.03125 0  0.03125 0.03125 0  0.0625 0.03125 0  0.09375 0.03125 0  0.125 0.03125 0  0.15625 0.03125 0  0.1875 0.03125 0  0.21875 0.03125 0  0.25 0.03125 0  0.28125 0.03125 0  0.3125 0.03125 0  0.34375 0.03125 0  0.375 0.03125 0  0.40625 0.03125 0  0.4375 0.03125 0  0.46875 0.03125 0  0.5 0.03125 0  0.53125 0.03125 0  0.5625 0.03125 0  0.59375 0.03125 0  0.625 0.03125 0  0.65625 0.03125 0  0.6875 0.03125 0  0.71875 0.03125 0  0.75 0.03125 0  0.78125 0.03125 0  0.8125 0.03125 0  0.84375 0.03125 0  0.875 0.03125 0  0.90625 0.03125 0  0.9375 0.03125 0  0.96875 0.03125 0  1 0.03125 0  1.03125 0.03125 0  1.0625 0.03125 0  1.09375 0.03125 0  1.125 0.03125 0  1.15625 0.03125 0  1.1875 0.03125 0  1.21875 0.03125 0  1.25 0.03125 0  1.28125 0.03125 0  1.3125 0.03125 0  1.34375 0.03125 0  1.375 0.03125 0  1.40625 0.03125 0  1.4375 0.03125 0  1.46875 0.03125 0  1.5 0.03125 0  0 0.0625 0  0.03125 0.0625 0  0.0625 0.0625 0  0.09375 0.0625 0  0.125 0.0625 0  0.15625 0.0625 0  0.1875 0.0625 0  0.21875 0.0625 0  0.25 0.0625 0  0.28125 0.0625 0  0.3125 0.0625 0  0.34375 0.0625 0  0.375 0.0625 0  0.40625 0.0625 0  0.4375 0.0625 0  0.46875 0.0625 0  0.5 0.0625 0  0.53125 0.0625 0  0.5625 0.0625 0  0.59375 0.0625 0  0.625 0.0625 0  0.65625 0.0625 0  0.6875 0.0625 0  0.71875 0.0625 0  0.75 0.0625 0  0.78125 0.0625 0  0.8125 0.0625 0  0.84375 0.0625 0  0.875 0.0625 0  0.90625 0.0625 0  0.9375 0.0625 0  0.96875 0.0625 0  1 0.0625 0  1.03125 0.0625 0  1.0625 0.0625 0  1.09375 0.0625 0  1.125 0.0625 0  1.15625 0.0625 0  1.1875 0.0625 0  1.21875 0.0625 0  1.25 0.0625 0  1.28125 0.0625 0  1.3125 0.0625 0  1.34375 0.0625 0  1.375 0.0625 0  1.40625 0.0625 0  1.4375 0.0625 0  1.46875 0.0625 0  1.5 0.0625 0  0 0.09375 0  0.03125 0.09375 0  0.0625 0.09375 0  0.09375 0.09375 0  0.125 0.09375 0  0.15625 0.09375 0  0.1875 0.09375 0  0.21875 0.09375 0  0.25 0.09375 0  0.28125 0.09375 0  0.3125 0.09375 0  0.34375 0.09375 0  0.375 0.09375 0  0.40625 0.09375 0  0.4375 0.09375 0  0.46875 0.09375 0  0.5 0.09375 0  0.53125 0.09375 0  0.5625 0.09375 0  0.59375 0.09375 0  0.625 0.09375 0  0.65625 0.09375 0  0.6875 0.09375 0  0.71875 0.09375 0  0.75 0.09375 0  0.78125 0.09375 0  0.8125 0.09375 0  0.84375 0.09375 0  0.875 0.09375 0  0.90625 0.09375 0  0.9375 0.09375 0  0.96875 0.09375 0  1 0.09375 0  1.03125 0.09375 0  1.0625 0.09375 0  1.09375 0.09375 0  1.125 0.09375 0  1.15625 0.09375 0  1.1875 0.09375 0  1.21875 0.09375 0  1.25 0.09375 0  1.28125 0.09375 0  1.3125 0.09375 0  1.34375 0.09375 0  1.375 0.09375 0  1.40625 0.09375 0  1.4375 0.09375 0  1.46875 0.09375 0  1.5 0.09375 0  0 0.125 0  0.03125 0.125 0  0.0625 0.125 0  0.09375 0.125 0  0.125 0.125 0  0.15625 0.125 0  0.1875 0.125 0  0.21875 0.125 0  0.25 0.125 0  0.28125 0.125 0  0.3125 0.125 0  0.34375 0.125 0  0.375 0.125 0  0.40625 0.125 0  0.4375 0.125 0  0.46875 0.125 0  0.5 0.125 0  0.53125 0.125 0  0.5625 0.125 0  0.59375 0.125 0  0.625 0.125 0  0.65625 0.125 0  0.6875 0.125 0  0.71875 0.125 0  0.75 0.125 0  0.78125 0.125 0  0.8125 0.125 0  0.84375 0.125 0  0.875 0.125 0  0.90625 0.125 0  0.9375 0.125 0  0.96875 0.125 0  1 0.125 0  1.03125 0.125 0  1.0625 0.125 0  1.09375 0.125 0  1.125 0.125 0  1.15625 0.125 0  1.1875 0.125 0  1.21875 0.125 0  1.25 0.125 0  1.28125 0.125 0  1.3125 0.125 0  1.34375 0.125 0  1.375 0.125 0  1.40625 0.125 0  1.4375 0.125 0  1.46875 0.125 0  1.5 0.125 0  0 0.15625 0  0.03125 0.15625 0  0.0625 0.15625 0  0.09375 0.15625 0  0.125 0.15625 0  0.15625 0.15625 0  0.1875 0.15625 0  0.21875 0.15625 0  0.25 0.15625 0  0.28125 0.15625 0  0.3125 0.15625 0  0.34375 0.15625 0  0.375 0.15625 0  0.40625 0.15625 0  0.4375 0.15625 0  0.46875 0.15625 0  0.5 0.15625 0  0.53125 0.15625 0  0.5625 0.15625 0  0.59375 0.15625 0  0.625 0.15625 0  0.65625 0.15625 0  0.6875 0.15625 0  0.71875 0.15625 0  0.75 0.15625 0  0.78125 0.15625 0  0.8125 0.15625 0  0.84375 0.15625 0  0.875 0.15625 0  0.90625 0.15625 0  0.9375 0.15625 0  0.96875 0.15625 0  1 0.15625 0  1.03125 0.15625 0  1.0625 0.15625 0  1.09375 0.15625 0  1.125 0.15625 0  1.15625 0.15625 0  1.1875 0.15625 0  1.21875 0.15625 0  1.25 0.15625 0  1.28125 0.15625 0  1.3125 0.15625 0  1.34375 0.15625 0  1.375 0.15625 0  1.40625 0.15625 0  1.4375 0.15625 0  1.46875 0.15625 0  1.5 0.15625 0  0 0.1875 0  0.03125 0.1875 0  0.0625 0.1875 0  0.09375 0.1875 0  0.125 0.1875 0  0.15625 0.1875 0  0.1875 0.1875 0  0.21875 0.1875 0  0.25 0.1875 0  0.28125 0.1875 0  0.3125 0.1875 0  0.34375 0.1875 0  0.375 0.1875 0  0.40625 0.1875 0  0.4375 0.1875 0  0.46875 0.1875 0  0.5 0.1875 0  0.53125 0.1875 0  0.5625 0.1875 0  0.59375 0.1875 0  0.625 0.1875 0  0.65625 0.1875 0  0.6875 0.1875 0  0.71875 0.1875 0  0.75 0.1875 0  0.78125 0.1875 0  0.8125 0.1875 0  0.84375 0.1875 0  0.875 0.1875 0  0.90625 0.1875 0  0.9375 0.1875 0  0.96875 0.1875 0  1 0.1875 0  1.03125 0.1875 0  1.0625 0.1875 0  1.09375 0.1875 0  1.125 0.1875 0  1.15625 0.1875 0  1.1875 0.1875 0  1.21875 0.1875 0  1.25 0.1875 0  1.28125 0.1875 0  1.3125 0.1875 0  1.34375 0.1875 0  1.375 0.1875 0  1.40625 0.1875 0  1.4375 0.1875 0  1.46875 0.1875 0  1.5 0.1875 0  0 0.21875 0  0.03125 0.21875 0  0.0625 0.21875 0  0.09375 0.21875 0  0.125 0.21875 0  0.15625 0.21875 0  0.1875 0.21875 0  0.21875 0.21875 0  0.25 0.21875 0  0.28125 0.21875 0  0.3125 0.21875 0  0.34375 0.21875 0  0.375 0.21875 0  0.40625 0.21875 0  0.4375 0.21875 0  0.46875 0.21875 0  0.5 0.21875 0  0.53125 0.21875 0  0.5625 0.21875 0  0.59375 0.21875 0  0.625 0.21875 0  0.65625 0.21875 0  0.6875 0.21875 0  0.71875 0.21875 0  0.75 0.21875 0  0.78125 0.21875 0  0.8125 0.21875 0  0.84375 0.21875 0  0.875 0.21875 0  0.90625 0.21875 0  0.9375 0.21875 0  0.96875 0.21875 0  1 0.21875 0  1.03125 0.21875 0  1.0625 0.21875 0  1.09375 0.21875 0  1.125 0.21875 0  1.15625 0.21875 0  1.1875 0.21875 0  1.21875 0.21875 0  1.25 0.21875 0  1.28125 0.21875 0  1.3125 0.21875 0  1.34375 0.21875 0  1.375 0.21875 0  1.40625 0.21875 0  1.4375 0.21875 0  1.46875 0.21875 0  1.5 0.21875 0  0 0.25 0  0.03125 0.25 0  0.0625 0.25 0  0.09375 0.25 0  0.125 0.25 0  0.15625 0.25 0  0.1875 0.25 0  0.21875 0.25 0  0.25 0.25 0  0.28125 0.25 0  0.3125 0.25 0  0.34375 0.25 0  0.375 0.25 0  0.40625 0.25 0  0.4375 0.25 0  0.46875 0.25 0  0.5 0.25 0  0.53125 0.25 0  0.5625 0.25 0  0.59375 0.25 0  0.625 0.25 0  0.65625 0.25 0  0.6875 0.25 0  0.71875 0.25 0  0.75 0.25 0  0.78125 0.25 0  0.8125 0.25 0  0.84375 0.25 0  0.875 0.25 0  0.90625 0.25 0  0.9375 0.25 0  0.96875 0.25 0  1 0.25 0  1.03125 0.25 0  1.0625 0.25 0  1.09375 0.25 0  1.125 0.25 0  1.15625 0.25 0  1.1875 0.25 0  1.21875 0.25 0  1.25 0.25 0  1.28125 0.25 0  1.3125 0.25 0  1.34375 0.25 0  1.375 0.25 0  1.40625 0.25 0  1.4375 0.25 0  1.46875 0.25 0  1.5 0.25 0  0 0.28125 0  0.03125 0.28125 0  0.0625 0.28125 0  0.09375 0.28125 0  0.125 0.28125 0  0.15625 0.28125 0  0.1875 0.28125 0  0.21875 0.28125 0  0.25 0.28125 0  0.28125 0.28125 0  0.3125 0.28125 0  0.34375 0.28125 0  0.375 0.28125 0  0.40625 0.28125 0  0.4375 0.28125 0  0.46875 0.28125 0  0.5 0.28125 0  0.53125 0.28125 0  0.5625 0.28125 0  0.59375 0.28125 0  0.625 0.28125 0  0.65625 0.28125 0  0.6875 0.28125 0  0.71875 0.28125 0  0.75 0.28125 0  0.78125 0.28125 0  0.8125 0.28125 0  0.84375 0.28125 0  0.875 0.28125 0  0.90625 0.28125 0  0.9375 0.28125 0  0.96875 0.28125 0  1 0.28125 0  1.03125 0.28125 0  1.0625 0.28125 0  1.09375 0.28125 0  1.125 0.28125 0  1.15625 0.28125 0  1.1875 0.28125 0  1.21875 0.28125 0  1.25 0.28125 0  1.28125 0.28125 0  1.3125 0.28125 0  1.34375 0.28125 0  1.375 0.28125 0  1.40625 0.28125 0  1.4375 0.28125 0  1.46875 0.28125 0  1.5 0.28125 0  0 0.3125 0  0.03125 0.3125 0  0.0625 0.3125 0  0.09375 0.3125 0  0.125 0.3125 0  0.15625 0.3125 0  0.1875 0.3125 0  0.21875 0.3125 0  0.25 0.3125 0  0.28125 0.3125 0  0.3125 0.3125 0  0.34375 0.3125 0  0.375 0.3125 0  0.40625 0.3125 0  0.4375 0.3125 0  0.46875 0.3125 0  0.5 0.3125 0  0.53125 0.3125 0  0.5625 0.3125 0  0.59375 0.3125 0  0.625 0.3125 0  0.65625 0.3125 0  0.6875 0.3125 0  0.71875 0.3125 0  0.75 0.3125 0  0.78125 0.3125 0  0.8125 0.3125 0  0.84375 0.3125 0  0.875 0.3125 0  0.90625 0.3125 0  0.9375 0.3125 0  0.96875 0.3125 0  1 0.3125 0  1.03125 0.3125 0  1.0625 0.3125 0  1.09375 0.3125 0  1.125 0.3125 0  1.15625 0.3125 0  1.1875 0.3125 0  1.21875 0.3125 0  1.25 0.3125 0  1.28125 0.3125 0  1.3125 0.3125 0  1.34375 0.3125 0  1.375 0.3125 0  1.40625 0.3125 0  1.4375 0.3125 0  1.46875 0.3125 0  1.5 0.3125 0  0 0.34375 0  0.03125 0.34375 0  0.0625 0.34375 0  0.09375 0.34375 0  0.125 0.34375 0  0.15625 0.34375 0  0.1875 0.34375 0  0.21875 0.34375 0  0.25 0.34375 0  0.28125 0.34375 0  0.3125 0.34375 0  0.34375 0.34375 0  0.375 0.34375 0  0.40625 0.34375 0  0.4375 0.34375 0  0.46875 0.34375 0  0.5 0.34375 0  0.53125 0.34375 0  0.5625 0.34375 0  0.59375 0.34375 0  0.625 0.34375 0  0.65625 0.34375 0  0.6875 0.34375 0  0.71875 0.34375 0  0.75 0.34375 0  0.78125 0.34375 0  0.8125 0.34375 0  0.84375 0.34375 0  0.875 0.34375 0  0.90625 0.34375 0  0.9375 0.34375 0  0.96875 0.34375 0  1 0.34375 0  1.03125 0.34375 0  1.0625 0.34375 0  1.09375 0.34375 0  1.125 0.34375 0  1.15625 0.34375 0  1.1875 0.34375 0  1.21875 0.34375 0  1.25 0.34375 0  1.28125 0.34375 0  1.3125 0.34375 0  1.34375 0.34375 0  1.375 0.34375 0  1
[...]
<PointData  Scalars="f_33"> 
<DataArray  type="Float64"  Name="f_33"  format="ascii">2.1322147424114945e-05  1.8760569494132831e-05  1.6547035600580676e-05  1.4429347786536366e-05  1.2423018554353239e-05  1.0526551455989807e-05  8.7402929534181015e-06  7.0634531383664293e-06  5.4939296443938682e-06  4.0289800672023660e-06  2.6656257337016436e-06  1.4008364544088138e-06  2.3161292303419912e-07  -8.4497284553909298e-07  -1.8317513727272635e-06  -2.7314351433808166e-06  -3.5466007100818220e-06  -4.2796717963062232e-06  -4.9329009778215841e-06  -5.5083465348913691e-06  -6.0078406254604045e-06  -6.4329456480702439e-06  -6.7848979040707443e-06  -7.0645413237820002e-06  -7.2722582559040447e-06  -7.4079076245718654e-06  -7.4707815539372606e-06  -7.4595891405353711e-06  -7.3724711331387740e-06  -7.2070436319162510e-06  -6.9604643640234319e-06  -6.6295127167398813e-06  -6.2106745550273369e-06  -5.7002244570488731e-06  -5.0943000580519321e-06  -4.3889663625515273e-06  -3.5802672686876481e-06  -2.6642701637610734e-06  -1.6370918990437881e-06  -4.9494561924760447e-07  7.6583771920800754e-07  2.1486710822241933e-06  3.6562073198815002e-06  5.2903707365129097e-06  7.0459288515138385e-06  8.9255457418082000e-06  1.0896520707734335e-05  1.2973083158227626e-05  1.4765050713429463e-05  2.2152872441026152e-05  1.8953489333606980e-05  1.6552761224682156e-05  1.4394413398486453e-05  1.2376665571938549e-05  1.0476867979476419e-05  8.6896057483268928e-06  7.0129169325411975e-06  5.4440201209036563e-06  3.9798424894109328e-06  2.6172629794301953e-06  1.3532056094330553e-06  1.8466224500896640e-07  -8.9129325364565884e-07  -1.8774884875791030e-06  -2.7766346619923144e-06  -3.5913095023903566e-06  -4.3239411910529000e-06  -4.9767913516199697e-06  -5.5519334014896626e-06  -6.0512217475463760e-06  -6.4762478512436609e-06  -6.8282815636485736e-06  -7.1082003051283455e-06  -7.3164137303997059e-06  -7.4527956397832581e-06  -7.5166360229638165e-06  -7.5066232768044979e-06  -7.4208607232270678e-06  -7.2569148532343574e-06  -7.0118875163559501e-06  -6.6825018117622787e-06  -6.2651916047551809e-06  -5.7561867488479899e-06  -5.1515885548065081e-06  -4.4474335560640892e-06  -3.6397430520196587e-06  -2.7245629306641354e-06  -1.6979847936907794e-06  -5.5616711150286989e-07  7.0464936258774040e-07  2.0881689240727039e-06  3.5975557344062482e-06  5.2361560097819375e-06  7.0025112972225063e-06  8.8979022840358060e-06  1.0939455330606566e-05  1.3041454171456517e-05  1.5678368442548414e-05  2.2966674918595804e-05  1.9396722722328380e-05  1.6718919596968644e-05  1.4382503234850718e-05  1.2284863528182711e-05  1.0349290998057587e-05  8.5456015184587697e-06  6.8623659839906191e-06  5.2918895350096417e-06  3.8287398623437051e-06  2.4685850749338621e-06  1.2077052382701786e-06  4.2723809838909108e-08  -1.0295110524399463e-06  -2.0119749474755131e-06  -2.9074822597970858e-06  -3.7186878012835779e-06  -4.4480832976028135e-06  -5.0979902086829959e-06  -5.6705460924685838e-06  -6.1676793113349984e-06  -6.5910665639143588e-06  -6.9420701102409989e-06  -7.2216568661260417e-06  -7.4303087089658976e-06  -7.5679395973088540e-06  -7.6338370236242614e-06  -7.6266411474572439e-06  -7.5443662436462452e-06  -7.3844596911399220e-06  -7.1438871114763161e-06  -6.8192298945466887e-06  -6.4067825429037890e-06  -5.9026406744524833e-06  -5.3027737847950311e-06  -4.6030807394227725e-06  -3.7994240415886894e-06  -2.8876456117631933e-06  -1.8635448311573128e-06  -7.2282924112129540e-07  5.3901147390747113e-07  1.9270033266895881e-06  3.4466825636498470e-06  5.1061413885147808e-06  6.9123078374590828e-06  8.8844508955732707e-06  1.1080545544793838e-05  1.3436013977380856e-05  1.6663623803831259e-05  2.3696594234763672e-05  1.9974006068866200e-05  1.7078359561168201e-05  1.4510595988880008e-05  1.2269378819449593e-05  1.0248682105358452e-05  8.3950212073598023e-06  6.6834725409354737e-06  5.0974613507820440e-06  3.6265490059526996e-06  2.2634425836675782e-06  1.0026353325553222e-06  -1.6036986848389488e-07  -1.2294528082613632e-06  -2.2080788670126913e-06  -3.0994027857758379e-06  -3.9063246143919144e-06  -4.6315223880543710e-06  -5.2774715716123838e-06  -5.8464520250283262e-06  -6.3405374814286652e-06  -6.7615600311092928e-06  -7.1110438841144948e-06  -7.3901096018516910e-06  -7.5993609562537277e-06  -7.7387771019441471e-06  -7.8076363705634108e-06  -7.8044911357391033e-06  -7.7271988368527622e-06  -7.5729996795080245e-06  -7.3386226642767616e-06  -7.0203999223247661e-06  -6.6143727375779876e-06  -6.1163782701933325e-06  -5.5221104915430219e-06  -4.8271525829769698e-06  -4.0269744395735072e-06  -3.1168917962031347e-06  -2.0919559792157382e-06  -9.4675921257441046e-07  3.2492997507470391e-07  1.7308866548566399e-06  3.2811091129287918e-06  4.9910689515879595e-06  6.8796514102672415e-06  8.9845025536702135e-06  1.1388599048409341e-05  1.4033741426561462e-05  1.7544503363842148e-05  2.4396941913856229e-05  2.0599442234328561e-05  1.7528681600668277e-05  1.4757646728307991e-05  1.2352986249680049e-05  1.0214680605092351e-05  8.2813367901904635e-06  6.5177787368772157e-06  4.8984805432694437e-06  3.4069790458653325e-06  2.0318627327635018e-06  7.6485574926094477e-07  -4.0041478452386866e-07  -1.4691188772578328e-06  -2.4456246675303546e-06  -3.3337299188526825e-06  -4.1368023515279341e-06  -4.8578714571786297e-06  -5.4996926721151217e-06  -6.0647899017082106e-06  -6.5554719519804853e-06  -6.9738122678951035e-06  -7.3215815126922150e-06  -7.6001315024796049e-06  -7.8102464939139420e-06  -7.9519965248993753e-06  -8.0246347093222704e-06  -8.0265683092680221e-06  -7.9554081915769301e-06  -7.8080776351696710e-06  -7.5809498249821423e-06  -7.2699842847498783e-06  -6.8708404550550057e-06  -6.3789560377519822e-06  -5.7895839747386959e-06  -5.0977852085488785e-06  -4.2983684576478875e-06  -3.3857669871175093e-06  -2.3538090621119708e-06  -1.1953476972728076e-06  9.8367429346244958e-08  1.5387819556974396e-06  3.1412458172275056e-06  4.9287538937995776e-06  6.9301129693728722e-06  9.1935965306992031e-06  1.1805235129978411e-05  1.4684689152036439e-05  1.8349275895812950e-05  2.5064273270698075e-05  2.1218702530345708e-05  1.8016433571049135e-05  1.5078716386777652e-05  1.2517330362027699e-05  1.0250710293445412e-05  8.2205231658761374e-06  6.3871482254627698e-06  4.7189120075275294e-06  3.1940902628192402e-06  1.7970408147897578e-06  5.1631209169863866e-07  -6.5680400069671754e-07  -1.7291892312035860e-06  -2.7064671498244422e-06  -3.5933610599657951e-06  -4.3939267883660857e-06  -5.1117150942101798e-06  -5.7498932168526561e-06  -6.3113364036698718e-06  -6.7986846358697259e-06  -7.2143483583626868e-06  -7.5604436386964895e-06  -7.8386483493061310e-06  -8.0499994312035312e-06  -8.1946858684546327e-06  -8.2719069870932731e-06  -8.2798434486493075e-06  -8.2157420332289008e-06  -8.0760760284947252e-06  -7.8567294401669999e-06  -7.5531614907561919e-06  -7.1605247477967043e-06  -6.6737256777524211e-06  -6.0874247959521970e-06  -5.3959759311077313e-06  -4.5932955108329050e-06  -3.6726482123110934e-06  -2.6262990892157301e-06  -1.4449912549301311e-06  -1.1712878868608720e-07  1.3725095004647019e-06  3.0441126705749408e-06  4.9263319290414875e-06  7.0533715852495857e-06  9.4754817712542685e-06  1.2268976325590629e-05  1.5324536556686303e-05  1.9079771761423477e-05  2.5688387198039743e-05  2.1807678054320061e-05  1.8505504576407132e-05  1.5434056431836856e-05  1.2734091732218108e-05  1.0343296934459162e-05  8.2110865343915788e-06  6.2983022882282857e-06  4.5705147795991420e-06  3.0024026793529348e-06  1.5747982112087158e-06  2.7325278028882808e-07  -9.1335925430302467e-07  -1.9938199487038994e-06  -2.9752218324167973e-06  -3.8634151894077135e-06  -4.6633171826814411e-06  -5.3791410289506006e-06  -6.0145785284787549e-06  -6.5729500906689057e-06  -7.0573153913319867e-06  -7.4705190309906064e-06  -7.8151346937026590e-06  -8.0932832303467639e-06  -8.3063463910568459e-06  -8.4546637932010958e-06  -8.5373332805521477e-06  -8.5521923397561356e-06  -8.4959699902820648e-06  -8.3645324476812362e-06  -8.1531353289164585e-06  -7.8566215601612629e-06  -7.4695373048751680e-06  -6.9861620903848948e-06  -6.4004591350158231e-06  -5.7059518387730947e-06  -4.8955204698486758e-06  -3.9611061912554899e-06  -2.8932738889158570e-06  -1.6806004008350849e-06  -3.0878912523367411e-07  1.2405966668714832e-06  2.9912631537793611e-06  4.9749573338965970e-06  7.2270474627278681e-06  9.7940855080370826e-06  1.2738280855107782e-05  1.5924959562544723e-05  1.9739714843868549e-05  2.6261240120495232e-05  2.2353496207691125e-05  1.8974402757594967e-05  1.5796016488256729e-05  1.2978148946366112e-05  1.0474533540096100e-05  8.2434377771560877e-06  6.2489713627708397e-06  4.4565501543637651e-06  2.8390080382951279e-06  1.3747222119304690e-06  4.6796891261537907e-08  -1.1580905022824114e-06  -2.2505856017472811e-06  -3.2393067917340487e-06  -4.1313269560330899e-06  -4.9325267511113289e-06  -5.6478736894218354e-06  -6.2816599263008670e-06  -6.8377155396315405e-06  -7.3195872629062634e-06  -7.7306438044867121e-06  -8.0740417704169585e-06  -8.3524930362034326e-06  -8.5678472465529846e-06  -8.7206313864749205e-06  -8.8097621437944012e-06  -8.8325628134715369e-06  -8.7850416805175458e-06  -8.6622769552034044e-06  -8.4587633847746823e-06  -8.1686434003084529e-06  -7.7858056267856645e-06  -7.3038660425315148e-06  -6.7160545713451638e-06  -6.0150239591644567e-06  -5.1925809963571474e-06  -4.2393315761067139e-06  -3.1441982732186852e-06  -1.8937936692983421e-06  -4.7158305208186033e-07  1.1431984853291729e-06  2.9762646781884011e-06  5.0601895240712871e-06  7.4286207706448268e-06  1.0121822217055173e-05  1.3188097001398961e-05  1.6473561516603119e-05  2.0330414065317322e-05  2.6777689738084825e-05  2.2848746680241975e-05  1.9409910940848103e-05  1.6146036120556200e-05  1.3229839281397649e-05  1.0627508081632593e-05  8.3055532244051048e-06  6.2324617690591337e-06  4.3750750228094392e-06  2.7057890132111054e-06  1.2015816983866542e-06  -1.5620992788471410e-07  -1.3827121096807859e-06  -2.4902358675193033e-06  -3.4888511436206050e-06  -4.3868490870788452e-06  -5.1911022564450242e-06  -5.9073687744283081e-06  -6.5405718482211316e-06  -7.0950759925565754e-06  -7.5749487826925818e-06  -7.9841560039030196e-06  -8.3265760922140208e-06  -8.6057066298490047e-06  -8.8240390085419738e-06  -8.9823312257432219e-06  -9.0791827826372659e-06  -9.1111438624495576e-06  -9.0732311749178614e-06  -8.9595348648238486e-06  -8.7636839816912135e-06  -8.4790939810420272e-06  -8.0990161549770108e-06  -7.6164419664310437e-06  -7.0239104274385204e-06  -6.3132485257860912e-06  -5.4752508539398799e-06  -4.4992947465151591e-06  -3.3728586379278980e-06  -2.0809454646733616e-06  -6.0537643838019310e-07  1.0760212841225615e-06  2.9896703472463761e-06  5.1673780293479473e-06  7.6395551155050591e-06  1.0439617168293421e-05  1.3603954955512414e-05  1.6964984543108073e-05  2.0853043943065151e-05  2.7234761002120651e-05  2.3289100967627132e-05  1.9803679372036139e-05  1.6471603577747050e-05  1.3474528999910904e-05  1.0788062036058115e-05  8.3857321075251686e-06  6.2405058922439866e-06  4.3214120960544063e-06  2.6013451664828131e-06  1.0567268940454072e-06  -3.3222988520745103e-07  -1.5820090522568810e-06  -2.7063042260549603e-06  -3.7164752519845445e-06  -4.6219506246520955e-06  -5.4305616122195342e-06  -6.1488440265040978e-06  -6.7823401117362467e-06  -7.3359303616331366e-06  -7.8141923251879224e-06  -8.2217319762739096e-06  -8.5633000768318411e-06  -8.8434458922472056e-06  -9.0655631294408193e-06  -9.2306940236090646e-06  -9.3368828083215928e-06  -9.3795039609508713e-06  -9.3522230404126242e-06  -9.2479418989853239e-06  -9.0593834072846476e-06  -8.7793009428169347e-06  -8.4004209221607833e-06  -7.9152319665423740e-06  -7.3156981256088778e-06  -6.5929354350902064e-06  -5.7368591536904788e-06  -4.7357994122605291e-06  -3.5760598491115584e-06  -2.2414363875975909e-06  -7.1268504122892518e-07  1.0330000287559339e-06  3.0218204291870172e-06  5.2839055151145859e-06  7.8459113290666950e-06  1.0734903231430022e-05  1.3977729492910240e-05  1.7397297783583598e-05  2.1309139669978141e-05  2.7630828322547849e-05  2.3672030218280565e-05  2.0150346356192891e-05  1.6764191683984712e-05  1.3701505422468580e-05  1.0944931199427217e-05  8.4736928751406578e-06  6.2648346449118475e-06  4.2897851617254446e-06  2.5224506081057635e-06  9.3927706829855972e-07  -4.8012456989489840e-07  -1.7531789561667765e-06  -2.8946577160929914e-06  -3.9170040586698693e-06  -4.8306536813375360e-06  -5.6443198029596527e-06  -6.3652678669969349e-06  -6.9996168133757173e-06  -7.5527068979907631e-06  -8.0295621074815417e-06  -8.4354225281339897e-06  -8.7760586244641516e-06  -9.0574448800322678e-06  -9.2842899879632378e-06  -9.4579858808704029e-06  -9.5755962853381299e-06  -9.6306858081312615e-06  -9.6151108933995455e-06  -9.5204375295146873e-06  -9.3385677257823666e-06  -9.0617884220795914e-06  -8.6825182265521733e-06  -8.1929392550840525e-06  -7.5846095322640274e-06  -6.8480899962359464e-06  -5.9725841391484234e-06  -4.9455832754094423e-06  -3.7524947814070659e-06  -2.3762805538761117e-06  -7.9710861069587458e-07  1.0079018114347009e-06  3.0641743479459728e-06  5.3997848786590288e-06  8.0377280583451296e-06  1.0999650880435418e-05  1.4305029712169697e-05  1.7770256684232643e-05  2.1700491119530879e-05  2.7965047011438085e-05  2.3996054539531927e-05  2.0446421921372735e-05  1.7017930223243533e-05  1.3902970630167854e-05  1.1089389771793539e-05  8.5608805227246180e-06  6.2979499766829520e-06  4.2743076198565601e-06  2.4650671984831054e-06  8.4704157522830380e-07  -6.0038377046261731e-07  -1.8952280956145665e-06  -3.0530541594168561e-06  -4.0871680739556744e-06  -5.0088548526997277e-06  -5.8276043535845535e-06  -6.5513433111774834e-06  -7.1867138243158259e-06  -7.7394401576655695e-06  -8.2148801679180563e-06  -8.6188245712560621e-06  -8.9581551674110564e-06  -9.2408032812788111e-06  -9.4734725171448648e-06  -9.6579771523551268e-06  -9.7896359698754820e-06  -9.8592156026086728e-06  -9.8562458880119205e-06  -9.7709796072390475e-06  -9.5947967044065842e-06  -9.3198744971797993e-06  -8.9386342174152640e-06  -8.4431911863598822e-06  -7.8248820467166938e-06  -7.0738718496800201e-06  -6.1788165812824558e-06  -5.1265638179741587e-06  -3.9018686264078525e-06  -2.4871579646807016e-06  -8.6235331133077847e-07  9.9516151590854158e-07  3.1097829426278314e-06  5.5075231228551509e-06  8.2081327123124174e-06  1.1228873511266163e-05  1.4583659876949660e-05  1.8084454772073835e-05  2.2028960832258408e-05  2.8237003198621222e-05  2.4260306674509709e-05  2.0689607801910521e-05  1.7228751870219284e-05  1.4073274074407901e-05  1.1214804135870586e-05  8.6404314686017260e-06  6.3334485599687193e-06  4.2695428435480473e-06  2.4250155584303401e-06  7.7720006700289450e-07  -6.9450402221817404e-07  -2.0084474201517008e-06  -3.1807343470165655e-06  -4.2253174217891014e-06  -5.1541570701242742e-06  -5.9773916795506211e-06  -6.7035262571293793e-06  -7.3396760986108477e-06  -7.8918870367327349e-06  -8.3657254059100081e-06  -8.7673446037428928e-06  -9.1046391924031334e-06  -9.3882503934121039e-06  -9.6279923530060458e-06  -9.8261427241629753e-06  -9.9749451929237576e-06  -1.0060904606701052e-05  -1.0070807412001257e-05  -9.9939944113868735e-06  -9.8219193310042011e-06  -9.5471506164445875e-06  -9.1624576692308567e-06  -8.6601107405528024e-06  -8.0313752427955931e-06  -7.2661447660712462e-06  -6.3526588185356387e-06  -5.2772776139893890e-06  -4.0242915410957540e-06  -2.5758033423174011e-06  -9.1169579481991813e-07  9.9022805905585261e-07  3.1533133104392520e-06  5.6017229426104758e-06  8.3525250071878997e-06  1.1419580376722367e-05  1.4812698654403246e-05  1.8340859672154871e-05  2.2296341803878527e-05  2.8446507097204981e-05  2.4464276009110154e-05  2.0878380314826404e-05  1.7393841667372134e-05  1.4208363691206142e-05  1.1316237252781052e-05  8.7070224400438025e-06  6.3661242284822380e-06  4.2708114604219921e-06  2.3984144413245059e-06  7.2680168502541262e-07  -7.6448817327234664e-07  -2.0939540825850108e-06  -3.2780369048086859e-06  -4.3311336611079407e-06  -5.2656965219569615e-06  -6.0923595907813011e-06  -6.8200973917781400e-06  -7.4564409300373231e-06  -8.0077342948693189e-06  -8.4796967499112688e-06  -8.8785871053412231e-06  -9.2128118701895907e-06  -9.4967034553000297e-06  -9.7448071221728570e-06  -9.9598032822621378e-06  -1.0128820012021698e-05  -1.0232156229987344e-05  -1.0253891621778000e-05  -1.0183485255518377e-05  -1.0013338037382549e-05  -9.7369280260287311e-06  -9.3476320343141086e-06  -8.8379963091037014e-06  -8.1992838032780777e-06  -7.4211825820750386e-06  -6.4916020532011207e-06  -5.3965275362349897e-06  -4.1199158990597433e-06  -2.6436760851991147e-06  -9.4774928404724601e-07  9.8962651693855514e-07  3.1908713641615416e-06  5.6786392958325208e-06  8.4679214027759230e-06  1.1570061624982021e-05  1.4991933079514262e-05  1.8540539562270553e-05  2.2504251008569476e-05  2.8593471682249512e-05  2.4607656650048467e-05  2.1011734717069654e-05  1.7511284867786666e-05  1.4305409518064253e-05  1.1390143275245608e-05  8.7567087812119792e-06  6.3919786835378437e-06  4.2743633474052344e-06  2.3819787041483697e-06  6.9314562736179848e-07  -8.1242309062572468e-07  -2.1532623669161278e-06  -3.3459929128240482e-06  -4.4052786368027145e-06  -5.3438816963062739e-06  -6.1727591064690912e-06  -6.9012053268881176e-06  -7.5370588939437362e-06  -8.0869400272399831e-06  -8.5567878397070019e-06  -8.9528262175704968e-06  -9.2830759952504104e-06  -9.5664480357642061e-06  -9.8236351816084338e-06  -1.0057697612027854e-05  -1.0248632063799875e-05  -1.0368293889508488e-05  -1.0398943763928646e-05  -1.0331882805670256e-05  -1.0161304832794433e-05  -9.8818712196063088e-06  -9.4875904605747171e-06  -8.9712466341704850e-06  -8.3240778313968673e-06  -7.5355842865736754e-06  -6.5934027018764375e-06  -5.4832282175048516e-06  -4.1887761696721493e-06  -2.6918339227688046e-06  -9.7241914910011475e-07  9.9087338665503973e-07  3.2197572666688319e-06  5.7357806826228295e-06  8.5524600958397235e-06  1.1679403723385836e-05  1.5121500878925048e-05  1.8684492188371269e-05  2.2654052566730063e-05  2.8677840753729911e-05  2.4690256441712262e-05  2.1089030213699883e-05  1.7579846464512234e-05  1.4362556763822241e-05  1.1434152575765754e-05  8.7867937576762614e-06  6.4082054589972161e-06  4.2774823879736100e-06  2.3732333485964432e-06  6.7408483484339841e-07  -8.4010635865406327e-07  -2.1878571907925211e-06  -3.3858591987306990e-06  -4.4489019379636114e-06  -5.3899002703943991e-06  -6.2199708931384237e-06  -6.9485640727576887e-06  -7.5836671074276916e-06  -8.1320760560479251e-06  -8.5999731336678741e-06  -8.9935872581687788e-06  -9.3197114227808848e-06  -9.6023271764486131e-06  -9.8671984651123835e-06  -1.0117712908408581e-05  -1.0328433020272402e-05  -1.0460644273026637e-05  -1.0495896757251593e-05  -1.0429236137936556e-05  -1.0256811684084781e-05  -9.9742315502887879e-06  -9.5758954542774498e-06  -9.0546776462540213e-06  -8.4017410728538883e-06  -7.6064208216616519e-06  -6.6561490124088738e-06  -5.5364174731153788e-06  -4.2307784942068017e-06  -2.7209385420258552e-06  -9.8696226275622989e-07  9.9233334602428873e-07  3.2382255644644347e-06  5.7715872194109705e-06  8.6050431835136580e-06  1.1747164324837022e-05  1.5201661200439898e-05  1.8773534698913247e-05  2.2746803280662346e-05  2.8699545421801135e-05  2.4711942657457620e-05  2.1109899205965389e-05  1.7598839958495116e-05  1.4378774475833014e-05  1.1446934374133465e-05  8.7957394539480867e-06  6.4131736334039816e-06  4.2785545796902604e-06  2.3706673307068154e-06  6.6826221566762403e-07  -8.4872937675275941e-07  -2.1987915150376390e-06  -3.3986147353116748e-06  -4.4630092964981207e-06  -5.4049233000737951e-06  -6.2355114685610038e-06  -6.9642605420479224e-06  -7.5991858490718723e-06  -8.1471265403356559e-06  -8.6142808905582809e-06  -9.0068645539302910e-06  -9.3304913669781563e-06  -9.6107157099004836e-06  -9.8782227620979466e-06  -1.0134394335575317e-