<?xml version="1.0"?>
<VTKFile type="UnstructuredGrid"  version="0.1"  >
<UnstructuredGrid>
<Piece  NumberOfPoints="1617" NumberOfCells="3072">
<Points>
<DataArray  type="Float64"  NumberOfComponents="3"  format="ascii">0 0 0  0.03125 0 0  0.0625 0 0  0.09375 0 0  0.125 0 0  0.15625 0 0  0.1875 0 0  0.21875 0 0  0.25 0 0  0.28125 0 0  0.3125 0 0  0.34375 0 0  0.375 0 0  0.40625 0 0  0.4375 0 0  0.46875 0 0  0.5 0 0  0.53125 0 0  0.5625 0 0  0.59375 0 0  0.625 0 0  0.65625 0 0  0.6875 0 0  0.71875 0 0  0.75 0 0  0.78125 0 0  0.8125 0 0  0.84375 0 0  0.875 0 0  0.90625 0 0  0.9375 0 0  0.96875 0 0  1 0 0  1.03125 0 0  1.0625 0 0  1.09375 0 0  1.125 0 0  1.15625 0 0  1.1875 0 0  1.21875 0 0  1.25 0 0  1.28125 0 0  1.3125 0 0  1.34375 0 0  1.375 0 0  1.40625 0 0  1.4375 0 0  1.46875 0 0  1.5 0 0  0 0.03125 0  0.03125 0.03125 0  0.0625 0.03125 0  0.09375 0.03125 0  0.125 0.03125 0  0.15625 0.03125 0  0.1875 0.03125 0  0.21875 0.03125 0  0.25 0.03125 0  0.28125 0.03125 0  0.3125 0.03125 0  0.34375 0.03125 0  0.375 0.03125 0  0.40625 0.03125 0  0.4375 0.03125 0  0.46875 0.03125 0  0.5 0.03125 0  0.53125 0.03125 0  0.5625 0.03125 0  0.59375 0.03125 0  0.625 0.03125 0  0.65625 0.03125 0  0.6875 0.03125 0  0.71875 0.03125 0  0.75 0.03125 0  0.78125 0.03125 0  0.8125 0.03125 0  0.84375 0.03125 0  0.875 0.03125 0  0.90625 0.03125 0  0.9375 0.03125 0  0.96875 0.03125 0  1 0.03125 0  1.03125 0.03125 0  1.0625 0.03125 0  1.09375 0.03125 0  1.125 0.03125 0  1.15625 0.03125 0  1.1875 0.03125 0  1.21875 0.03125 0  1.25 0.03125 0  1.28125 0.03125 0  1.3125 0.03125 0  1.34375 0.03125 0  1.375 0.03125 0  1.40625 0.03125 0  1.4375 0.03125 0  1.46875 0.03125 0  1.5 0.03125 0  0 0.0625 0  0.03125 0.0625 0  0.0625 0.0625 0  0.09375 0.0625 0  0.125 0.0625 0  0.15625 0.0625 0  0.1875 0.0625 0  0.21875 0.0625 0  0.25 0.0625 0  0.28125 0.0625 0  0.3125 0.0625 0  0.34375 0.0625 0  0.375 0.0625 0  0.40625 0.0625 0  0.4375 0.0625 0  0.46875 0.0625 0  0.5 0.0625 0  0.53125 0.0625 0  0.5625 0.0625 0  0.59375 0.0625 0  0.625 0.0625 0  0.65625 0.0625 0  0.6875 0.0625 0  0.71875 0.0625 0  0.75 0.0625 0  0.78125 0.0625 0  0.8125 0.0625 0  0.84375 0.0625 0  0.875 0.0625 0  0.90625 0.0625 0  0.9375 0.0625 0  0.96875 0.0625 0  1 0.0625 0  1.03125 0.0625 0  1.0625 0.0625 0  1.09375 0.0625 0  1.125 0.0625 0  1.15625 0.0625 0  1.1875 0.0625 0  1.21875 0.0625 0  1.25 0.0625 0  1.28125 0.0625 0  1.3125 0.0625 0  1.34375 0.0625 0  1.375 0.0625 0  1.40625 0.0625 0  1.4375 0.0625 0  1.46875 0.0625 0  1.5 0.0625 0  0 0.09375 0  0.03125 0.09375 0  0.0625 0.09375 0  0.09375 0.09375 0  0.125 0.09375 0  0.15625 0.09375 0  0.1875 0.09375 0  0.21875 0.09375 0  0.25 0.09375 0  0.28125 0.09375 0  0.3125 0.09375 0  0.34375 0.09375 0  0.375 0.09375 0  0.40625 0.09375 0  0.4375 0.09375 0  0.46875 0.09375 0  0.5 0.09375 0  0.53125 0.09375 0  0.5625 0.09375 0  0.59375 0.09375 0  0.625 0.09375 0  0.65625 0.09375 0  0.6875 0.09375 0  0.71875 0.09375 0  0.75 0.09375 0  0.78125 0.09375 0  0.8125 0.09375 0  0.84375 0.09375 0  0.875 0.09375 0  0.90625 0.09375 0  0.9375 0.09375 0  0.96875 0.09375 0  1 0.09375 0  1.03125 0.09375 0  1.0625 0.09375 0  1.09375 0.09375 0  1.125 0.09375 0  1.15625 0.09375 0  1.1875 0.09375 0  1.21875 0.09375 0  1.25 0.09375 0  1.28125 0.09375 0  1.3125 0.09375 0  1.34375 0.09375 0  1.375 0.09375 0  1.40625 0.09375 0  1.4375 0.09375 0  1.46875 0.09375 0  1.5 0.09375 0  0 0.125 0  0.03125 0.125 0  0.0625 0.125 0  0.09375 0.125 0  0.125 0.125 0  0.15625 0.125 0  0.1875 0.125 0  0.21875 0.125 0  0.25 0.125 0  0.28125 0.125 0  0.3125 0.125 0  0.34375 0.125 0  0.375 0.125 0  0.40625 0.125 0  0.4375 0.125 0  0.46875 0.125 0  0.5 0.125 0  0.53125 0.125 0  0.5625 0.125 0  0.59375 0.125 0  0.625 0.125 0  0.65625 0.125 0  0.6875 0.125 0  0.71875 0.125 0  0.75 0.125 0  0.78125 0.125 0  0.8125 0.125 0  0.84375 0.125 0  0.875 0.125 0  0.90625 0.125 0  0.9375 0.125 0  0.96875 0.125 0  1 0.125 0  1.03125 0.125 0  1.0625 0.125 0  1.09375 0.125 0  1.125 0.125 0  1.15625 0.125 0  1.1875 0.125 0  1.21875 0.125 0  1.25 0.125 0  1.28125 0.125 0  1.3125 0.125 0  1.34375 0.125 0  1.375 0.125 0  1.40625 0.125 0  1.4375 0.125 0  1.46875 0.125 0  1.5 0.125 0  0 0.15625 0  0.03125 0.15625 0  0.0625 0.15625 0  0.09375 0.15625 0  0.125 0.15625 0  0.15625 0.15625 0  0.1875 0.15625 0  0.21875 0.15625 0  0.25 0.15625 0  0.28125 0.15625 0  0.3125 0.15625 0  0.34375 0.15625 0  0.375 0.15625 0  0.40625 0.15625 0  0.4375 0.15625 0  0.46875 0.15625 0  0.5 0.15625 0  0.53125 0.15625 0  0.5625 0.15625 0  0.59375 0.15625 0  0.625 0.15625 0  0.65625 0.15625 0  0.6875 0.15625 0  0.71875 0.15625 0  0.75 0.15625 0  0.78125 0.15625 0  0.8125 0.15625 0  0.84375 0.15625 0  0.875 0.15625 0  0.90625 0.15625 0  0.9375 0.15625 0  0.96875 0.15625 0  1 0.15625 0  1.03125 0.15625 0  1.0625 0.15625 0  1.09375 0.15625 0  1.125 0.15625 0  1.15625 0.15625 0  1.1875 0.15625 0  1.21875 0.15625 0  1.25 0.15625 0  1.28125 0.15625 0  1.3125 0.15625 0  1.34375 0.15625 0  1.375 0.15625 0  1.40625 0.15625 0  1.4375 0.15625 0  1.46875 0.15625 0  1.5 0.15625 0  0 0.1875 0  0.03125 0.1875 0  0.0625 0.1875 0  0.09375 0.1875 0  0.125 0.1875 0  0.15625 0.1875 0  0.1875 0.1875 0  0.21875 0.1875 0  0.25 0.1875 0  0.28125 0.1875 0  0.3125 0.1875 0  0.34375 0.1875 0  0.375 0.1875 0  0.40625 0.1875 0  0.4375 0.1875 0  0.46875 0.1875 0  0.5 0.1875 0  0.53125 0.1875 0  0.5625 0.1875 0  0.59375 0.1875 0  0.625 0.1875 0  0.65625 0.1875 0  0.6875 0.1875 0  0.71875 0.1875 0  0.75 0.1875 0  0.78125 0.1875 0  0.8125 0.1875 0  0.84375 0.1875 0  0.875 0.1875 0  0.90625 0.1875 0  0.9375 0.1875 0  0.96875 0.1875 0  1 0.1875 0  1.03125 0.1875 0  1.0625 0.1875 0  1.09375 0.1875 0  1.125 0.1875 0  1.15625 0.1875 0  1.1875 0.1875 0  1.21875 0.1875 0  1.25 0.1875 0  1.28125 0.1875 0  1.3125 0.1875 0  1.34375 0.1875 0  1.375 0.1875 0  1.40625 0.1875 0  1.4375 0.1875 0  1.46875 0.1875 0  1.5 0.1875 0  0 0.21875 0  0.03125 0.21875 0  0.0625 0.21875 0  0.09375 0.21875 0  0.125 0.21875 0  0.15625 0.21875 0  0.1875 0.21875 0  0.21875 0.21875 0  0.25 0.21875 0  0.28125 0.21875 0  0.3125 0.21875 0  0.34375 0.21875 0  0.375 0.21875 0  0.40625 0.21875 0  0.4375 0.21875 0  0.46875 0.21875 0  0.5 0.21875 0  0.53125 0.21875 0  0.5625 0.21875 0  0.59375 0.21875 0  0.625 0.21875 0  0.65625 0.21875 0  0.6875 0.21875 0  0.71875 0.21875 0  0.75 0.21875 0  0.78125 0.21875 0  0.8125 0.21875 0  0.84375 0.21875 0  0.875 0.21875 0  0.90625 0.21875 0  0.9375 0.21875 0  0.96875 0.21875 0  1 0.21875 0  1.03125 0.21875 0  1.0625 0.21875 0  1.09375 0.21875 0  1.125 0.21875 0  1.15625 0.21875 0  1.1875 0.21875 0  1.21875 0.21875 0  1.25 0.21875 0  1.28125 0.21875 0  1.3125 0.21875 0  1.34375 0.21875 0  1.375 0.21875 0  1.40625 0.21875 0  1.4375 0.21875 0  1.46875 0.21875 0  1.5 0.21875 0  0 0.25 0  0.03125 0.25 0  0.0625 0.25 0  0.09375 0.25 0  0.125 0.25 0  0.15625 0.25 0  0.1875 0.25 0  0.21875 0.25 0  0.25 0.25 0  0.28125 0.25 0  0.3125 0.25 0  0.34375 0.25 0  0.375 0.25 0  0.40625 0.25 0  0.4375 0.25 0  0.46875 0.25 0  0.5 0.25 0  0.53125 0.25 0  0.5625 0.25 0  0.59375 0.25 0  0.625 0.25 0  0.65625 0.25 0  0.6875 0.25 0  0.71875 0.25 0  0.75 0.25 0  0.78125 0.25 0  0.8125 0.25 0  0.84375 0.25 0  0.875 0.25 0  0.90625 0.25 0  0.9375 0.25 0  0.96875 0.25 0  1 0.25 0  1.03125 0.25 0  1.0625 0.25 0  1.09375 0.25 0  1.125 0.25 0  1.15625 0.25 0  1.1875 0.25 0  1.21875 0.25 0  1.25 0.25 0  1.28125 0.25 0  1.3125 0.25 0  1.34375 0.25 0  1.375 0.25 0  1.40625 0.25 0  1.4375 0.25 0  1.46875 0.25 0  1.5 0.25 0  0 0.28125 0  0.03125 0.28125 0  0.0625 0.28125 0  0.09375 0.28125 0  0.125 0.28125 0  0.15625 0.28125 0  0.1875 0.28125 0  0.21875 0.28125 0  0.25 0.28125 0  0.28125 0.28125 0  0.3125 0.28125 0  0.34375 0.28125 0  0.375 0.28125 0  0.40625 0.28125 0  0.4375 0.28125 0  0.46875 0.28125 0  0.5 0.28125 0  0.53125 0.28125 0  0.5625 0.28125 0  0.59375 0.28125 0  0.625 0.28125 0  0.65625 0.28125 0  0.6875 0.28125 0  0.71875 0.28125 0  0.75 0.28125 0  0.78125 0.28125 0  0.8125 0.28125 0  0.84375 0.28125 0  0.875 0.28125 0  0.90625 0.28125 0  0.9375 0.28125 0  0.96875 0.28125 0  1 0.28125 0  1.03125 0.28125 0  1.0625 0.28125 0  1.09375 0.28125 0  1.125 0.28125 0  1.15625 0.28125 0  1.1875 0.28125 0  1.21875 0.28125 0  1.25 0.28125 0  1.28125 0.28125 0  1.3125 0.28125 0  1.34375 0.28125 0  1.375 0.28125 0  1.40625 0.28125 0  1.4375 0.28125 0  1.46875 0.28125 0  1.5 0.28125 0  0 0.3125 0  0.03125 0.3125 0  0.0625 0.3125 0  0.09375 0.3125 0  0.125 0.3125 0  0.15625 0.3125 0  0.1875 0.3125 0  0.21875 0.3125 0  0.25 0.3125 0  0.28125 0.3125 0  0.3125 0.3125 0  0.34375 0.3125 0  0.375 0.3125 0  0.40625 0.3125 0  0.4375 0.3125 0  0.46875 0.3125 0  0.5 0.3125 0  0.53125 0.3125 0  0.5625 0.3125 0  0.59375 0.3125 0  0.625 0.3125 0  0.65625 0.3125 0  0.6875 0.3125 0  0.71875 0.3125 0  0.75 0.3125 0  0.78125 0.3125 0  0.8125 0.3125 0  0.84375 0.3125 0  0.875 0.3125 0  0.90625 0.3125 0  0.9375 0.3125 0  0.96875 0.3125 0  1 0.3125 0  1.03125 0.3125 0  1.0625 0.3125 0  1.09375 0.3125 0  1.125 0.3125 0  1.15625 0.3125 0  1.1875 0.3125 0  1.21875 0.3125 0  1.25 0.3125 0  1.28125 0.3125 0  1.3125 0.3125 0  1.34375 0.3125 0  1.375 0.3125 0  1.40625 0.3125 0  1.4375 0.3125 0  1.46875 0.3125 0  1.5 0.3125 0  0 0.34375 0  0.03125 0.34375 0  0.0625 0.34375 0  0.09375 0.34375 0  0.125 0.34375 0  0.15625 0.34375 0  0.1875 0.34375 0  0.21875 0.34375 0  0.25 0.34375 0  0.28125 0.34375 0  0.3125 0.34375 0  0.34375 0.34375 0  0.375 0.34375 0  0.40625 0.34375 0  0.4375 0.34375 0  0.46875 0.34375 0  0.5 0.34375 0  0.53125 0.34375 0  0.5625 0.34375 0  0.59375 0.34375 0  0.625 0.34375 0  0.65625 0.34375 0  0.6875 0.34375 0  0.71875 0.34375 0  0.75 0.34375 0  0.78125 0.34375 0  0.8125 0.34375 0  0.84375 0.34375 0  0.875 0.34375 0  0.90625 0.34375 0  0.9375 0.34375 0  0.96875 0.34375 0  1 0.34375 0  1.03125 0.34375 0  1.0625 0.34375 0  1.09375 0.34375 0  1.125 0.34375 0  1.15625 0.34375 0  1.1875 0.34375 0  1.21875 0.34375 0  1.25 0.34375 0  1.28125 0.34375 0  1.3125 0.34375 0  1.34375 0.34375 0  1.375 0.34375 0  1
[...]
<PointData  Vectors="f_17"> 
<DataArray  type="Float64"  Name="f_17"  NumberOfComponents="3" format="ascii">0.0000000000000000e+00 0.0000000000000000e+00 0.0000000000000000e+00  0.0000000000000000e+00 0.0000000000000000e+00 0.0000000000000000e+00  0.0000000000000000e+00 0.0000000000000000e+00 0.0000000000000000e+00  0.0000000000000000e+00 0.0000000000000000e+00 0.0000000000000000e+00  0.0000000000000000e+00 0.0000000000000000e+00 0.0000000000000000e+00  0.0000000000000000e+00 0.0000000000000000e+00 0.0000000000000000e+00  0.0000000000000000e+00 0.0000000000000000e+00 0.0000000000000000e+00  0.0000000000000000e+00 0.0000000000000000e+00 0.0000000000000000e+00  0.0000000000000000e+00 0.0000000000000000e+00 0.0000000000000000e+00  0.0000000000000000e+00 0.0000000000000000e+00 0.0000000000000000e+00  0.0000000000000000e+00 0.0000000000000000e+00 0.0000000000000000e+00  0.0000000000000000e+00 0.0000000000000000e+00 0.0000000000000000e+00  0.0000000000000000e+00 0.0000000000000000e+00 0.0000000000000000e+00  0.0000000000000000e+00 0.0000000000000000e+00 0.0000000000000000e+00  0.0000000000000000e+00 0.0000000000000000e+00 0.0000000000000000e+00  0.0000000000000000e+00 0.0000000000000000e+00 0.0000000000000000e+00  0.0000000000000000e+00 0.0000000000000000e+00 0.0000000000000000e+00  0.0000000000000000e+00 0.0000000000000000e+00 0.0000000000000000e+00  0.0000000000000000e+00 0.0000000000000000e+00 0.0000000000000000e+00  0.0000000000000000e+00 0.0000000000000000e+00 0.0000000000000000e+00  0.0000000000000000e+00 0.0000000000000000e+00 0.0000000000000000e+00  0.0000000000000000e+00 0.0000000000000000e+00 0.0000000000000000e+00  0.0000000000000000e+00 0.0000000000000000e+00 0.0000000000000000e+00  0.0000000000000000e+00 0.0000000000000000e+00 0.0000000000000000e+00  0.0000000000000000e+00 0.0000000000000000e+00 0.0000000000000000e+00  0.0000000000000000e+00 0.0000000000000000e+00 0.0000000000000000e+00  0.0000000000000000e+00 0.0000000000000000e+00 0.0000000000000000e+00  0.0000000000000000e+00 0.0000000000000000e+00 0.0000000000000000e+00  0.0000000000000000e+00 0.0000000000000000e+00 0.0000000000000000e+00  0.0000000000000000e+00 0.0000000000000000e+00 0.0000000000000000e+00  0.0000000000000000e+00 0.0000000000000000e+00 0.0000000000000000e+00  0.0000000000000000e+00 0.0000000000000000e+00 0.0000000000000000e+00  0.0000000000000000e+00 0.0000000000000000e+00 0.0000000000000000e+00  0.0000000000000000e+00 0.0000000000000000e+00 0.0000000000000000e+00  0.0000000000000000e+00 0.0000000000000000e+00 0.0000000000000000e+00  0.0000000000000000e+00 0.0000000000000000e+00 0.0000000000000000e+00  0.0000000000000000e+00 0.0000000000000000e+00 0.0000000000000000e+00  0.0000000000000000e+00 0.0000000000000000e+00 0.0000000000000000e+00  0.0000000000000000e+00 0.0000000000000000e+00 0.0000000000000000e+00  0.0000000000000000e+00 0.0000000000000000e+00 0.0000000000000000e+00  0.0000000000000000e+00 0.0000000000000000e+00 0.0000000000000000e+00  0.0000000000000000e+00 0.0000000000000000e+00 0.0000000000000000e+00  0.0000000000000000e+00 0.0000000000000000e+00 0.0000000000000000e+00  0.0000000000000000e+00 0.0000000000000000e+00 0.0000000000000000e+00  0.0000000000000000e+00 0.0000000000000000e+00 0.0000000000000000e+00  0.0000000000000000e+00 0.0000000000000000e+00 0.0000000000000000e+00  0.0000000000000000e+00 0.0000000000000000e+00 0.0000000000000000e+00  0.0000000000000000e+00 0.0000000000000000e+00 0.0000000000000000e+00  0.0000000000000000e+00 0.0000000000000000e+00 0.0000000000000000e+00  0.0000000000000000e+00 0.0000000000000000e+00 0.0000000000000000e+00  2.2110504352090328e-07 9.2224574648767929e-09 0.0000000000000000e+00  -1.2418972719719654e-07 9.3829663619356720e-08 0.0000000000000000e+00  -1.1718662286957728e-07 -2.9334633744086118e-08 0.0000000000000000e+00  -3.1721529323520279e-07 -7.0737224132046294e-08 0.0000000000000000e+00  -2.9676791691833744e-07 -9.7826713359039344e-08 0.0000000000000000e+00  -2.7785660894588445e-07 -1.0210875192759927e-07 0.0000000000000000e+00  -2.6085409180181772e-07 -9.3790164331022138e-08 0.0000000000000000e+00  -2.3230357979791395e-07 -8.2875862584751402e-08 0.0000000000000000e+00  -2.0481233892059151e-07 -7.1057373535973983e-08 0.0000000000000000e+00  -1.7886611957967945e-07 -5.9579068203383737e-08 0.0000000000000000e+00  -1.5583173123881476e-07 -4.8855999155930322e-08 0.0000000000000000e+00  -1.3690051230137191e-07 -3.8924561606616113e-08 0.0000000000000000e+00  -1.2242274772521451e-07 -2.9753664578675008e-08 0.0000000000000000e+00  -1.1264071948668097e-07 -2.1252484317578155e-08 0.0000000000000000e+00  -1.0766566785934369e-07 -1.3306756235137944e-08 0.0000000000000000e+00  -1.0754832977487678e-07 -5.8040227924580923e-09 0.0000000000000000e+00  -1.1232450431847867e-07 1.3415960149610209e-09 0.0000000000000000e+00  -1.2200443878508605e-07 8.1603130386186644e-09 0.0000000000000000e+00  -1.3653744624119486e-07 1.4599021620593829e-08 0.0000000000000000e+00  -1.5574903242879980e-07 2.0503746879481920e-08 0.0000000000000000e+00  -1.7926350956028037e-07 2.5621749182641971e-08 0.0000000000000000e+00  -2.0643407115539148e-07 2.9629470340123871e-08 0.0000000000000000e+00  -2.3630108458046920e-07 3.2184599873478263e-08 0.0000000000000000e+00  -2.6760311033241034e-07 3.2991133539760450e-08 0.0000000000000000e+00  -2.9883742108242944e-07 3.1860001388872653e-08 0.0000000000000000e+00  -3.2838169018719086e-07 2.8747090426834336e-08 0.0000000000000000e+00  -3.5460951287406738e-07 2.3760292121601743e-08 0.0000000000000000e+00  -3.7605930856849466e-07 1.7130625811568041e-08 0.0000000000000000e+00  -3.9144581686171128e-07 9.1714885077221083e-09 0.0000000000000000e+00  -3.9988269778130271e-07 2.0693082530907304e-10 0.0000000000000000e+00  -4.0052407514499505e-07 -9.4357379853455708e-09 0.0000000000000000e+00  -3.9327737247961068e-07 -1.9551311079201922e-08 0.0000000000000000e+00  -3.7719942584221708e-07 -2.9854642073394019e-08 0.0000000000000000e+00  -3.5364746045290231e-07 -4.0464438241751745e-08 0.0000000000000000e+00  -3.1957579435140183e-07 -5.0786492546594815e-08 0.0000000000000000e+00  -2.8125109591341313e-07 -6.1933660274324142e-08 0.0000000000000000e+00  -2.2584685625020014e-07 -7.1262462976917709e-08 0.0000000000000000e+00  -1.7991902228045439e-07 -8.4204518200636473e-08 0.0000000000000000e+00  -8.9452159903319180e-08 -8.8278816171716872e-08 0.0000000000000000e+00  -6.5393470948439526e-08 -1.0880814201030399e-07 0.0000000000000000e+00  1.1580312197941575e-07 -8.9106420724527067e-08 0.0000000000000000e+00  -6.4098579235028176e-11 -1.4318044366057723e-07 0.0000000000000000e+00  4.8793277732639178e-07 -2.4706353272157489e-08 0.0000000000000000e+00  -2.4630360199106356e-07 -2.2857239340716084e-07 0.0000000000000000e+00  1.3138556690646983e-06 2.5407354805185923e-07 0.0000000000000000e+00  -2.4226237281488893e-06 -7.3964516280387440e-07 0.0000000000000000e+00  2.7100742598649325e-06 1.3732029159055694e-06 0.0000000000000000e+00  0.0000000000000000e+00 0.0000000000000000e+00 0.0000000000000000e+00  0.0000000000000000e+00 0.0000000000000000e+00 0.0000000000000000e+00  -1.1273508879640449e-06 7.0676318372008845e-07 0.0000000000000000e+00  8.6430861944289347e-07 -2.5002606129870121e-08 0.0000000000000000e+00  -1.2990596035119623e-07 9.7350580341464122e-08 0.0000000000000000e+00  -3.0277505744291848e-07 -3.7015280623073281e-08 0.0000000000000000e+00  -3.1240845693977245e-07 -9.4525782731601771e-08 0.0000000000000000e+00  -3.6625982922236856e-07 -1.1929946144706525e-07 0.0000000000000000e+00  -3.5775415402589239e-07 -1.2489364840461207e-07 0.0000000000000000e+00  -3.3732490500307628e-07 -1.2023757164460322e-07 0.0000000000000000e+00  -3.1185385466689681e-07 -1.0994877133851795e-07 0.0000000000000000e+00  -2.8326164201916733e-07 -9.6945366803519306e-08 0.0000000000000000e+00  -2.5646938586259073e-07 -8.2684027547353160e-08 0.0000000000000000e+00  -2.3280301258027653e-07 -6.8003483106402686e-08 0.0000000000000000e+00  -2.1322286383574444e-07 -5.3371289747130081e-08 0.0000000000000000e+00  -1.9829504797066675e-07 -3.9006360550890609e-08 0.0000000000000000e+00  -1.8824878424594554e-07 -2.4978305029077465e-08 0.0000000000000000e+00  -1.8320429986825904e-07 -1.1278648234407987e-08 0.0000000000000000e+00  -1.8320974145484226e-07 2.1124337822414748e-09 0.0000000000000000e+00  -1.8826506142065078e-07 1.5154694267356243e-08 0.0000000000000000e+00  -1.9830184358272003e-07 2.7679155297979893e-08 0.0000000000000000e+00  -2.1312110370521567e-07 3.9337991189998707e-08 0.0000000000000000e+00  -2.3230774593019633e-07 4.9593542791563135e-08 0.0000000000000000e+00  -2.5514719741750916e-07 5.7762570592655799e-08 0.0000000000000000e+00  -2.8057434877039338e-07 6.3115728013752837e-08 0.0000000000000000e+00  -3.0718927604119651e-07 6.5010877314827763e-08 0.0000000000000000e+00  -3.3333855414822451e-07 6.3022729074553435e-08 0.0000000000000000e+00  -3.5727263201813692e-07 5.7028447963041871e-08 0.0000000000000000e+00  -3.7729431516274912e-07 4.7226707870854239e-08 0.0000000000000000e+00  -3.9195699123569191e-07 3.4083759111569335e-08 0.0000000000000000e+00  -4.0007193705872452e-07 1.8242917028626858e-08 0.0000000000000000e+00  -4.0093537469202236e-07 3.9407430231329738e-10 0.0000000000000000e+00  -3.9391305998000017e-07 -1.8782123318264989e-08 0.0000000000000000e+00  -3.7918828306762114e-07 -3.8771794386186347e-08 0.0000000000000000e+00  -3.5603224621474386e-07 -5.9035173250608969e-08 0.0000000000000000e+00  -3.2614668427406728e-07 -7.9473364815271379e-08 0.0000000000000000e+00  -2.8663297095953205e-07 -9.9316156788228794e-08 0.0000000000000000e+00  -2.4431781021931102e-07 -1.1941038464345339e-07 0.0000000000000000e+00  -1.8644222325408650e-07 -1.3698473576441888e-07 0.0000000000000000e+00  -1.4067403126989181e-07 -1.5669985510197623e-07 0.0000000000000000e+00  -5.3166024832324692e-08 -1.6643519557435469e-07 0.0000000000000000e+00  -3.6604929627566303e-08 -1.8845413823212210e-07 0.0000000000000000e+00  1.3072573964275389e-07 -1.7015751434467112e-07 0.0000000000000000e+00  -5.2570935741805246e-09 -2.1288067087151131e-07 0.0000000000000000e+00  4.4375348632426007e-07 -9.5331062715236204e-08 0.0000000000000000e+00  -3.2405665520080932e-07 -2.6030768057024247e-07 0.0000000000000000e+00  1.0942231306767233e-06 1.8838356186875735e-07 0.0000000000000000e+00  -2.5022213542329638e-06 -5.7710159024280146e-07 0.0000000000000000e+00  2.5438815447415895e-06 1.4430026669093908e-06 0.0000000000000000e+00  0.0000000000000000e+00 0.0000000000000000e+00 0.0000000000000000e+00  0.0000000000000000e+00 0.0000000000000000e+00 0.0000000000000000e+00  -2.1890886651344921e-06 1.1785690650325377e-06 0.0000000000000000e+00  1.8577071212446724e-06 -1.1355412201109402e-07 0.0000000000000000e+00  -3.6860349277532273e-07 2.6555829961112424e-07 0.0000000000000000e+00  1.9396244941229571e-08 -1.1613515836131511e-08 0.0000000000000000e+00  -1.2491617242061768e-07 -5.2682627967978386e-08 0.0000000000000000e+00  -1.8418174577072290e-07 -1.1038519572235691e-07 0.0000000000000000e+00  -1.9809837854810239e-07 -1.3100306436631278e-07 0.0000000000000000e+00  -2.1936102308675068e-07 -1.3555397875103521e-07 0.0000000000000000e+00  -2.2357440092972516e-07 -1.2954199944590825e-07 0.0000000000000000e+00  -2.2193338417136628e-07 -1.1731139862278508e-07 0.0000000000000000e+00  -2.1720114229912754e-07 -1.0168948615723101e-07 0.0000000000000000e+00  -2.1083586254162481e-07 -8.4357027381721285e-08 0.0000000000000000e+00  -2.0475724045117708e-07 -6.6336567323208408e-08 0.0000000000000000e+00  -1.9990291057650344e-07 -4.8192946639201770e-08 0.0000000000000000e+00  -1.9695649369120093e-07 -3.0195209218702422e-08 0.0000000000000000e+00  -1.9639666476619994e-07 -1.2432403110957848e-08 0.0000000000000000e+00  -1.9855782636016098e-07 5.0781287822343861e-09 0.0000000000000000e+00  -2.0369799234007769e-07 2.2274079733959042e-08 0.0000000000000000e+00  -2.1198962164065322e-07 3.8931416935446723e-08 0.0000000000000000e+00  -2.2346707557562544e-07 5.4569733095951802e-08 0.0000000000000000e+00  -2.3793444325967305e-07 6.8416569976275095e-08 0.0000000000000000e+00  -2.5486656960914427e-07 7.9462896303020288e-08 0.0000000000000000e+00  -2.7334721281843774e-07 8.6615431066590766e-08 0.0000000000000000e+00  -2.9209319126843464e-07 8.8911848420502439e-08 0.0000000000000000e+00  -3.0956875310693782e-07 8.5732811926816933e-08 0.0000000000000000e+00  -3.2419390234559607e-07 7.6939134254300660e-08 0.0000000000000000e+00  -3.3453866339651867e-07 6.2893600473263670e-08 0.0000000000000000e+00  -3.3954809930166859e-07 4.4363612596376312e-08 0.0000000000000000e+00  -3.3853505613287091e-07 2.2362069916457208e-08 0.0000000000000000e+00  -3.3138253589780434e-07 -2.0533174647407003e-09 0.0000000000000000e+00  -3.1805961822080499e-07 -2.7883637808815221e-08 0.0000000000000000e+00  -2.9937081944701388e-07 -5.4371431606914902e-08 0.0000000000000000e+00  -2.7512413903605446e-07 -8.0795796744420417e-08 0.0000000000000000e+00  -2.4762101908520943e-07 -1.0692639395205817e-07 0.0000000000000000e+00  -2.1436736784642979e-07 -1.3185846239210555e-07 0.0000000000000000e+00  -1.8291719012294694e-07 -1.5628001590423406e-07 0.0000000000000000e+00  -1.4073431438779889e-07 -1.7721012970338693e-07 0.0000000000000000e+00  -1.1663521509359273e-07 -1.9889152469763886e-07 0.0000000000000000e+00  -5.6669596705842588e-08 -2.0911241582008920e-07 0.0000000000000000e+00  -7.4935346038477676e-08 -2.2874045468718642e-07 0.0000000000000000e+00  4.9847566529676865e-08 -2.0759672362626003e-07 0.0000000000000000e+00  -1.3289579498392882e-07 -2.4075650212933358e-07 0.0000000000000000e+00  2.5332707918852857e-07 -1.2634205260709904e-07 0.0000000000000000e+00  -5.5198946621562439e-07 -2.6999199311166920e-07 0.0000000000000000e+00  7.7740619685838477e-07 1.2769068374637260e-07 0.0000000000000000e+00  -2.7417479950582378e-06 -5.2529534247383723e-07 0.0000000000000000e+00  2.1476499529474461e-06 1.2339741847321032e-06 0.0000000000000000e+00  0.0000000000000000e+00 0.0000000000000000e+00 0.0000000000000000e+00  0.0000000000000000e+00 0.0000000000000000e+00 0.0000000000000000e+00  -2.4408667771091151e-06 1.2137166003046968e-06 0.0000000000000000e+00  2.4795931235092363e-06 -1.4436047571223497e-07 0.0000000000000000e+00  -6.6137513759049118e-07 3.4829159353983184e-07 0.0000000000000000e+00  3.0710519117660624e-07 4.4814455909193174e-09 0.0000000000000000e+00  -1.2128190187290779e-07 1.9101057445567688e-08 0.0000000000000000e+00  -6.8096762600472060e-08 -7.2695748590938548e-08 0.0000000000000000e+00  -1.1555101893398183e-07 -9.8981655804511693e-08 0.0000000000000000e+00  -1.4801025775114825e-07 -1.1777995238276824e-07 0.0000000000000000e+00  -1.6364324822140499e-07 -1.2044070375622055e-07 0.0000000000000000e+00  -1.7724403360969631e-07 -1.1434497536020998e-07 0.0000000000000000e+00  -1.8456809246014936e-07 -1.0231817169205600e-07 0.0000000000000000e+00  -1.8889034320386743e-07 -8.6673896158020011e-08 0.0000000000000000e+00  -1.9160979027188435e-07 -6.8993764319976205e-08 0.0000000000000000e+00  -1.9360154205280826e-07 -5.0246817731117691e-08 0.0000000000000000e+00  -1.9570498411063490e-07 -3.1003065569296377e-08 0.0000000000000000e+00  -1.9846226758342169e-07 -1.1534484671739864e-08 0.0000000000000000e+00  -2.0231983553859568e-07 8.0428943900699555e-09 0.0000000000000000e+00  -2.0766782797547238e-07 2.7613058215222243e-08 0.0000000000000000e+00  -2.1484070727600498e-07 4.6885864392446190e-08 0.0000000000000000e+00  -2.2406241312487457e-07 6.5238226677517876e-08 0.0000000000000000e+00  -2.3532388670670376e-07 8.1633662212094462e-08 0.0000000000000000e+00  -2.4824142011149354e-07 9.4681808619805009e-08 0.0000000000000000e+00  -2.6196028752556524e-07 1.0285903785491909e-07 0.0000000000000000e+00  -2.7518179677705364e-07 1.0483881937547011e-07 0.0000000000000000e+00  -2.8632915663888048e-07 9.9818611953938941e-08 0.0000000000000000e+00  -2.9384354161402654e-07 8.7720112531221666e-08 0.0000000000000000e+00  -2.9645672744278990e-07 6.9196475187736788e-08 0.0000000000000000e+00  -2.9346063087208616e-07 4.5455006969409734e-08 0.0000000000000000e+00  -2.8466799394884556e-07 1.7991072006526473e-08 0.0000000000000000e+00  -2.7057363518635325e-07 -1.1704943242402401e-08 0.0000000000000000e+00  -2.5174457551759047e-07 -4.2303773464547487e-08 0.0000000000000000e+00  -2.2959343869942603e-07 -7.2826575360810017e-08 0.0000000000000000e+00  -2.0433332755239320e-07 -1.0241663678665556e-07 0.0000000000000000e+00  -1.7879500591233056e-07 -1.3074084124648995e-07 0.0000000000000000e+00  -1.5049547871744279e-07 -1.5680669796514441e-07 0.0000000000000000e+00  -1.2772991503312288e-07 -1.8111918378159110e-07 0.0000000000000000e+00  -9.7087705219398716e-08 -2.0060159206876760e-07 0.0000000000000000e+00  -8.9261106794753764e-08 -2.1899489911994451e-07 0.0000000000000000e+00  -4.6701292718006175e-08 -2.2450715402883821e-07 0.0000000000000000e+00  -8.9228682904522816e-08 -2.3647800013272208e-07 0.0000000000000000e+00  1.6585911396482009e-08 -2.0871259753424829e-07 0.0000000000000000e+00  -1.9729925607487115e-07 -2.2977573941408271e-07 0.0000000000000000e+00  1.8153380351159640e-07 -1.1841608249689263e-07 0.0000000000000000e+00  -6.5486212980510727e-07 -2.4428857859123038e-07 0.0000000000000000e+00  7.0245870596936194e-07 1.0610762252212093e-07 0.0000000000000000e+00  -2.8092156772174695e-06 -4.7052401648444193e-07 0.0000000000000000e+00  2.1278781010664079e-06 1.0765367998260203e-06 0.0000000000000000e+00  0.0000000000000000e+00 0.0000000000000000e+00 0.0000000000000000e+00  0.0000000000000000e+00 0.0000000000000000e+00 0.0000000000000000e+00  -2.3900140852195265e-06 1.0996728338553862e-06 0.0000000000000000e+00  2.7259242365109373e-06 -1.3183010620145358e-07 0.0000000000000000e+00  -7.9826861738265108e-07 3.4787202161652027e-07 0.0000000000000000e+00  5.2671447625859288e-07 1.8463002496351717e-08 0.0000000000000000e+00  -1.5860812920634771e-07 7.4296048033139047e-08 0.0000000000000000e+00  5.6589424086261876e-08 -3.7060486894271596e-08 0.0000000000000000e+00  -5.6445844981804708e-08 -5.8244814583085017e-08 0.0000000000000000e+00  -6.9971258617551771e-08 -8.9856825070247442e-08 0.0000000000000000e+00  -9.7971213180010730e-08 -9.8532355449556228e-08 0.0000000000000000e+00  -1.2116230158693456e-07 -9.9132885709907232e-08 0.0000000000000000e+00  -1.3757490971553106e-07 -9.1549713797257229e-08 0.0000000000000000e+00  -1.5138286465818198e-07 -7.9006840436541077e-08 0.0000000000000000e+00  -1.6220199502206695e-07 -6.3228636203787690e-08 0.0000000000000000e+00  -1.7115234775087614e-07 -4.5498620485252557e-08 0.0000000000000000e+00  -1.7891396410426699e-07 -2.6631198660190061e-08 0.0000000000000000e+00  -1.8598933574952779e-07 -7.0459746213335720e-09 0.0000000000000000e+00  -1.9287192019097642e-07 1.3074973267109235e-08 0.0000000000000000e+00  -2.0002952650483529e-07 3.3613592719299255e-08 0.0000000000000000e+00  -2.0794374694992683e-07 5.4273430499484831e-08 0.0000000000000000e+00  -2.1703535815162966e-07 7.4330340237689774e-08 0.0000000000000000e+00  -2.2749248849056660e-07 9.2472580059114465e-08 0.0000000000000000e+00  -2.3905171257331703e-07 1.0685025606833321e-07 0.0000000000000000e+00  -2.5083442323909102e-07 1.1539274439434047e-07 0.0000000000000000e+00  -2.6137181852103315e-07 1.1631829105849589e-07 0.0000000000000000e+00  -2.6885814775303081e-07 1.0863889061444609e-07 0.0000000000000000e+00  -2.7159613303967642e-07 9.2445320023211390e-08 0.0000000000000000e+00  -2.6840125888238096e-07 6.8867304714191071e-08 0.0000000000000000e+00  -2.5892735920256163e-07 3.9750138200880858e-08 0.0000000000000000e+00  -2.4356737276996909e-07 7.2182034645109143e-09 0.0000000000000000e+00  -2.2351603709244211e-07 -2.6745901338182277e-08 0.0000000000000000e+00  -1.9999811055779948e-07 -6.0509129344442488e-08 0.0000000000000000e+00  -1.7501954863934062e-07 -9.2961988127861825e-08 0.0000000000000000e+00  -1.4914697184351049e-07 -1.2323281444126847e-07 0.0000000000000000e+00  -1.2557230380909225e-07 -1.5101973