<?xml version="1.0"?>
<VTKFile type="UnstructuredGrid"  version="0.1"  >
<UnstructuredGrid>
<Piece  NumberOfPoints="1617" NumberOfCells="3072">
<Points>
<DataArray  type="Float64"  NumberOfComponents="3"  format="ascii">0 0 0  0.03125 0 0  0.0625 0 0  0.09375 0 0  0.125 0 0  0.15625 0 0  0.1875 0 0  0.21875 0 0  0.25 0 0  0.28125 0 0  0.3125 0 0  0.34375 0 0  0.375 0 0  0.40625 0 0  0.4375 0 0  0.46875 0 0  0.5 0 0  0.53125 0 0  0.5625 0 0  0.59375 0 0  0.625 0 0  0.65625 0 0  0.6875 0 0  0.71875 0 0  0.75 0 0  0.78125 0 0  0.8125 0 0  0.84375 0 0  0.875 0 0  0.90625 0 0  0.9375 0 0  0.96875 0 0  1 0 0  1.03125 0 0  1.0625 0 0  1.09375 0 0  1.125 0 0  1.15625 0 0  1.1875 0 0  1.21875 0 0  1.25 0 0  1.28125 0 0  1.3125 0 0  1.34375 0 0  1.375 0 0  1.40625 0 0  1.4375 0 0  1.46875 0 0  1.5 0 0  0 0.03125 0  0.03125 0.03125 0  0.0625 0.03125 0  0.09375 0.03125 0  0.125 0.03125 0  0.15625 0.03125 0  0.1875 0.03125 0  0.21875 0.03125 0  0.25 0.03125 0  0.28125 0.03125 0  0.3125 0.03125 0  0.34375 0.03125 0  0.375 0.03125 0  0.40625 0.03125 0  0.4375 0.03125 0  0.46875 0.03125 0  0.5 0.03125 0  0.53125 0.03125 0  0.5625 0.03125 0  0.59375 0.03125 0  0.625 0.03125 0  0.65625 0.03125 0  0.6875 0.03125 0  0.71875 0.03125 0  0.75 0.03125 0  0.78125 0.03125 0  0.8125 0.03125 0  0.84375 0.03125 0  0.875 0.03125 0  0.90625 0.03125 0  0.9375 0.03125 0  0.96875 0.03125 0  1 0.03125 0  1.03125 0.03125 0  1.0625 0.03125 0  1.09375 0.03125 0  1.125 0.03125 0  1.15625 0.03125 0  1.1875 0.03125 0  1.21875 0.03125 0  1.25 0.03125 0  1.28125 0.03125 0  1.3125 0.03125 0  1.34375 0.03125 0  1.375 0.03125 0  1.40625 0.03125 0  1.4375 0.03125 0  1.46875 0.03125 0  1.5 0.03125 0  0 0.0625 0  0.03125 0.0625 0  0.0625 0.0625 0  0.09375 0.0625 0  0.125 0.0625 0  0.15625 0.0625 0  0.1875 0.0625 0  0.21875 0.0625 0  0.25 0.0625 0  0.28125 0.0625 0  0.3125 0.0625 0  0.34375 0.0625 0  0.375 0.0625 0  0.40625 0.0625 0  0.4375 0.0625 0  0.46875 0.0625 0  0.5 0.0625 0  0.53125 0.0625 0  0.5625 0.0625 0  0.59375 0.0625 0  0.625 0.0625 0  0.65625 0.0625 0  0.6875 0.0625 0  0.71875 0.0625 0  0.75 0.0625 0  0.78125 0.0625 0  0.8125 0.0625 0  0.84375 0.0625 0  0.875 0.0625 0  0.90625 0.0625 0  0.9375 0.0625 0  0.96875 0.0625 0  1 0.0625 0  1.03125 0.0625 0  1.0625 0.0625 0  1.09375 0.0625 0  1.125 0.0625 0  1.15625 0.0625 0  1.1875 0.0625 0  1.21875 0.0625 0  1.25 0.0625 0  1.28125 0.0625 0  1.3125 0.0625 0  1.34375 0.0625 0  1.375 0.0625 0  1.40625 0.0625 0  1.4375 0.0625 0  1.46875 0.0625 0  1.5 0.0625 0  0 0.09375 0  0.03125 0.09375 0  0.0625 0.09375 0  0.09375 0.09375 0  0.125 0.09375 0  0.15625 0.09375 0  0.1875 0.09375 0  0.21875 0.09375 0  0.25 0.09375 0  0.28125 0.09375 0  0.3125 0.09375 0  0.34375 0.09375 0  0.375 0.09375 0  0.40625 0.09375 0  0.4375 0.09375 0  0.46875 0.09375 0  0.5 0.09375 0  0.53125 0.09375 0  0.5625 0.09375 0  0.59375 0.09375 0  0.625 0.09375 0  0.65625 0.09375 0  0.6875 0.09375 0  0.71875 0.09375 0  0.75 0.09375 0  0.78125 0.09375 0  0.8125 0.09375 0  0.84375 0.09375 0  0.875 0.09375 0  0.90625 0.09375 0  0.9375 0.09375 0  0.96875 0.09375 0  1 0.09375 0  1.03125 0.09375 0  1.0625 0.09375 0  1.09375 0.09375 0  1.125 0.09375 0  1.15625 0.09375 0  1.1875 0.09375 0  1.21875 0.09375 0  1.25 0.09375 0  1.28125 0.09375 0  1.3125 0.09375 0  1.34375 0.09375 0  1.375 0.09375 0  1.40625 0.09375 0  1.4375 0.09375 0  1.46875 0.09375 0  1.5 0.09375 0  0 0.125 0  0.03125 0.125 0  0.0625 0.125 0  0.09375 0.125 0  0.125 0.125 0  0.15625 0.125 0  0.1875 0.125 0  0.21875 0.125 0  0.25 0.125 0  0.28125 0.125 0  0.3125 0.125 0  0.34375 0.125 0  0.375 0.125 0  0.40625 0.125 0  0.4375 0.125 0  0.46875 0.125 0  0.5 0.125 0  0.53125 0.125 0  0.5625 0.125 0  0.59375 0.125 0  0.625 0.125 0  0.65625 0.125 0  0.6875 0.125 0  0.71875 0.125 0  0.75 0.125 0  0.78125 0.125 0  0.8125 0.125 0  0.84375 0.125 0  0.875 0.125 0  0.90625 0.125 0  0.9375 0.125 0  0.96875 0.125 0  1 0.125 0  1.03125 0.125 0  1.0625 0.125 0  1.09375 0.125 0  1.125 0.125 0  1.15625 0.125 0  1.1875 0.125 0  1.21875 0.125 0  1.25 0.125 0  1.28125 0.125 0  1.3125 0.125 0  1.34375 0.125 0  1.375 0.125 0  1.40625 0.125 0  1.4375 0.125 0  1.46875 0.125 0  1.5 0.125 0  0 0.15625 0  0.03125 0.15625 0  0.0625 0.15625 0  0.09375 0.15625 0  0.125 0.15625 0  0.15625 0.15625 0  0.1875 0.15625 0  0.21875 0.15625 0  0.25 0.15625 0  0.28125 0.15625 0  0.3125 0.15625 0  0.34375 0.15625 0  0.375 0.15625 0  0.40625 0.15625 0  0.4375 0.15625 0  0.46875 0.15625 0  0.5 0.15625 0  0.53125 0.15625 0  0.5625 0.15625 0  0.59375 0.15625 0  0.625 0.15625 0  0.65625 0.15625 0  0.6875 0.15625 0  0.71875 0.15625 0  0.75 0.15625 0  0.78125 0.15625 0  0.8125 0.15625 0  0.84375 0.15625 0  0.875 0.15625 0  0.90625 0.15625 0  0.9375 0.15625 0  0.96875 0.15625 0  1 0.15625 0  1.03125 0.15625 0  1.0625 0.15625 0  1.09375 0.15625 0  1.125 0.15625 0  1.15625 0.15625 0  1.1875 0.15625 0  1.21875 0.15625 0  1.25 0.15625 0  1.28125 0.15625 0  1.3125 0.15625 0  1.34375 0.15625 0  1.375 0.15625 0  1.40625 0.15625 0  1.4375 0.15625 0  1.46875 0.15625 0  1.5 0.15625 0  0 0.1875 0  0.03125 0.1875 0  0.0625 0.1875 0  0.09375 0.1875 0  0.125 0.1875 0  0.15625 0.1875 0  0.1875 0.1875 0  0.21875 0.1875 0  0.25 0.1875 0  0.28125 0.1875 0  0.3125 0.1875 0  0.34375 0.1875 0  0.375 0.1875 0  0.40625 0.1875 0  0.4375 0.1875 0  0.46875 0.1875 0  0.5 0.1875 0  0.53125 0.1875 0  0.5625 0.1875 0  0.59375 0.1875 0  0.625 0.1875 0  0.65625 0.1875 0  0.6875 0.1875 0  0.71875 0.1875 0  0.75 0.1875 0  0.78125 0.1875 0  0.8125 0.1875 0  0.84375 0.1875 0  0.875 0.1875 0  0.90625 0.1875 0  0.9375 0.1875 0  0.96875 0.1875 0  1 0.1875 0  1.03125 0.1875 0  1.0625 0.1875 0  1.09375 0.1875 0  1.125 0.1875 0  1.15625 0.1875 0  1.1875 0.1875 0  1.21875 0.1875 0  1.25 0.1875 0  1.28125 0.1875 0  1.3125 0.1875 0  1.34375 0.1875 0  1.375 0.1875 0  1.40625 0.1875 0  1.4375 0.1875 0  1.46875 0.1875 0  1.5 0.1875 0  0 0.21875 0  0.03125 0.21875 0  0.0625 0.21875 0  0.09375 0.21875 0  0.125 0.21875 0  0.15625 0.21875 0  0.1875 0.21875 0  0.21875 0.21875 0  0.25 0.21875 0  0.28125 0.21875 0  0.3125 0.21875 0  0.34375 0.21875 0  0.375 0.21875 0  0.40625 0.21875 0  0.4375 0.21875 0  0.46875 0.21875 0  0.5 0.21875 0  0.53125 0.21875 0  0.5625 0.21875 0  0.59375 0.21875 0  0.625 0.21875 0  0.65625 0.21875 0  0.6875 0.21875 0  0.71875 0.21875 0  0.75 0.21875 0  0.78125 0.21875 0  0.8125 0.21875 0  0.84375 0.21875 0  0.875 0.21875 0  0.90625 0.21875 0  0.9375 0.21875 0  0.96875 0.21875 0  1 0.21875 0  1.03125 0.21875 0  1.0625 0.21875 0  1.09375 0.21875 0  1.125 0.21875 0  1.15625 0.21875 0  1.1875 0.21875 0  1.21875 0.21875 0  1.25 0.21875 0  1.28125 0.21875 0  1.3125 0.21875 0  1.34375 0.21875 0  1.375 0.21875 0  1.40625 0.21875 0  1.4375 0.21875 0  1.46875 0.21875 0  1.5 0.21875 0  0 0.25 0  0.03125 0.25 0  0.0625 0.25 0  0.09375 0.25 0  0.125 0.25 0  0.15625 0.25 0  0.1875 0.25 0  0.21875 0.25 0  0.25 0.25 0  0.28125 0.25 0  0.3125 0.25 0  0.34375 0.25 0  0.375 0.25 0  0.40625 0.25 0  0.4375 0.25 0  0.46875 0.25 0  0.5 0.25 0  0.53125 0.25 0  0.5625 0.25 0  0.59375 0.25 0  0.625 0.25 0  0.65625 0.25 0  0.6875 0.25 0  0.71875 0.25 0  0.75 0.25 0  0.78125 0.25 0  0.8125 0.25 0  0.84375 0.25 0  0.875 0.25 0  0.90625 0.25 0  0.9375 0.25 0  0.96875 0.25 0  1 0.25 0  1.03125 0.25 0  1.0625 0.25 0  1.09375 0.25 0  1.125 0.25 0  1.15625 0.25 0  1.1875 0.25 0  1.21875 0.25 0  1.25 0.25 0  1.28125 0.25 0  1.3125 0.25 0  1.34375 0.25 0  1.375 0.25 0  1.40625 0.25 0  1.4375 0.25 0  1.46875 0.25 0  1.5 0.25 0  0 0.28125 0  0.03125 0.28125 0  0.0625 0.28125 0  0.09375 0.28125 0  0.125 0.28125 0  0.15625 0.28125 0  0.1875 0.28125 0  0.21875 0.28125 0  0.25 0.28125 0  0.28125 0.28125 0  0.3125 0.28125 0  0.34375 0.28125 0  0.375 0.28125 0  0.40625 0.28125 0  0.4375 0.28125 0  0.46875 0.28125 0  0.5 0.28125 0  0.53125 0.28125 0  0.5625 0.28125 0  0.59375 0.28125 0  0.625 0.28125 0  0.65625 0.28125 0  0.6875 0.28125 0  0.71875 0.28125 0  0.75 0.28125 0  0.78125 0.28125 0  0.8125 0.28125 0  0.84375 0.28125 0  0.875 0.28125 0  0.90625 0.28125 0  0.9375 0.28125 0  0.96875 0.28125 0  1 0.28125 0  1.03125 0.28125 0  1.0625 0.28125 0  1.09375 0.28125 0  1.125 0.28125 0  1.15625 0.28125 0  1.1875 0.28125 0  1.21875 0.28125 0  1.25 0.28125 0  1.28125 0.28125 0  1.3125 0.28125 0  1.34375 0.28125 0  1.375 0.28125 0  1.40625 0.28125 0  1.4375 0.28125 0  1.46875 0.28125 0  1.5 0.28125 0  0 0.3125 0  0.03125 0.3125 0  0.0625 0.3125 0  0.09375 0.3125 0  0.125 0.3125 0  0.15625 0.3125 0  0.1875 0.3125 0  0.21875 0.3125 0  0.25 0.3125 0  0.28125 0.3125 0  0.3125 0.3125 0  0.34375 0.3125 0  0.375 0.3125 0  0.40625 0.3125 0  0.4375 0.3125 0  0.46875 0.3125 0  0.5 0.3125 0  0.53125 0.3125 0  0.5625 0.3125 0  0.59375 0.3125 0  0.625 0.3125 0  0.65625 0.3125 0  0.6875 0.3125 0  0.71875 0.3125 0  0.75 0.3125 0  0.78125 0.3125 0  0.8125 0.3125 0  0.84375 0.3125 0  0.875 0.3125 0  0.90625 0.3125 0  0.9375 0.3125 0  0.96875 0.3125 0  1 0.3125 0  1.03125 0.3125 0  1.0625 0.3125 0  1.09375 0.3125 0  1.125 0.3125 0  1.15625 0.3125 0  1.1875 0.3125 0  1.21875 0.3125 0  1.25 0.3125 0  1.28125 0.3125 0  1.3125 0.3125 0  1.34375 0.3125 0  1.375 0.3125 0  1.40625 0.3125 0  1.4375 0.3125 0  1.46875 0.3125 0  1.5 0.3125 0  0 0.34375 0  0.03125 0.34375 0  0.0625 0.34375 0  0.09375 0.34375 0  0.125 0.34375 0  0.15625 0.34375 0  0.1875 0.34375 0  0.21875 0.34375 0  0.25 0.34375 0  0.28125 0.34375 0  0.3125 0.34375 0  0.34375 0.34375 0  0.375 0.34375 0  0.40625 0.34375 0  0.4375 0.34375 0  0.46875 0.34375 0  0.5 0.34375 0  0.53125 0.34375 0  0.5625 0.34375 0  0.59375 0.34375 0  0.625 0.34375 0  0.65625 0.34375 0  0.6875 0.34375 0  0.71875 0.34375 0  0.75 0.34375 0  0.78125 0.34375 0  0.8125 0.34375 0  0.84375 0.34375 0  0.875 0.34375 0  0.90625 0.34375 0  0.9375 0.34375 0  0.96875 0.34375 0  1 0.34375 0  1.03125 0.34375 0  1.0625 0.34375 0  1.09375 0.34375 0  1.125 0.34375 0  1.15625 0.34375 0  1.1875 0.34375 0  1.21875 0.34375 0  1.25 0.34375 0  1.28125 0.34375 0  1.3125 0.34375 0  1.34375 0.34375 0  1.375 0.34375 0  1
[...]
<PointData  Vectors="f_17"> 
<DataArray  type="Float64"  Name="f_17"  NumberOfComponents="3" format="ascii">0.0000000000000000e+00 0.0000000000000000e+00 0.0000000000000000e+00  0.0000000000000000e+00 0.0000000000000000e+00 0.0000000000000000e+00  0.0000000000000000e+00 0.0000000000000000e+00 0.0000000000000000e+00  0.0000000000000000e+00 0.0000000000000000e+00 0.0000000000000000e+00  0.0000000000000000e+00 0.0000000000000000e+00 0.0000000000000000e+00  0.0000000000000000e+00 0.0000000000000000e+00 0.0000000000000000e+00  0.0000000000000000e+00 0.0000000000000000e+00 0.0000000000000000e+00  0.0000000000000000e+00 0.0000000000000000e+00 0.0000000000000000e+00  0.0000000000000000e+00 0.0000000000000000e+00 0.0000000000000000e+00  0.0000000000000000e+00 0.0000000000000000e+00 0.0000000000000000e+00  0.0000000000000000e+00 0.0000000000000000e+00 0.0000000000000000e+00  0.0000000000000000e+00 0.0000000000000000e+00 0.0000000000000000e+00  0.0000000000000000e+00 0.0000000000000000e+00 0.0000000000000000e+00  0.0000000000000000e+00 0.0000000000000000e+00 0.0000000000000000e+00  0.0000000000000000e+00 0.0000000000000000e+00 0.0000000000000000e+00  0.0000000000000000e+00 0.0000000000000000e+00 0.0000000000000000e+00  0.0000000000000000e+00 0.0000000000000000e+00 0.0000000000000000e+00  0.0000000000000000e+00 0.0000000000000000e+00 0.0000000000000000e+00  0.0000000000000000e+00 0.0000000000000000e+00 0.0000000000000000e+00  0.0000000000000000e+00 0.0000000000000000e+00 0.0000000000000000e+00  0.0000000000000000e+00 0.0000000000000000e+00 0.0000000000000000e+00  0.0000000000000000e+00 0.0000000000000000e+00 0.0000000000000000e+00  0.0000000000000000e+00 0.0000000000000000e+00 0.0000000000000000e+00  0.0000000000000000e+00 0.0000000000000000e+00 0.0000000000000000e+00  0.0000000000000000e+00 0.0000000000000000e+00 0.0000000000000000e+00  0.0000000000000000e+00 0.0000000000000000e+00 0.0000000000000000e+00  0.0000000000000000e+00 0.0000000000000000e+00 0.0000000000000000e+00  0.0000000000000000e+00 0.0000000000000000e+00 0.0000000000000000e+00  0.0000000000000000e+00 0.0000000000000000e+00 0.0000000000000000e+00  0.0000000000000000e+00 0.0000000000000000e+00 0.0000000000000000e+00  0.0000000000000000e+00 0.0000000000000000e+00 0.0000000000000000e+00  0.0000000000000000e+00 0.0000000000000000e+00 0.0000000000000000e+00  0.0000000000000000e+00 0.0000000000000000e+00 0.0000000000000000e+00  0.0000000000000000e+00 0.0000000000000000e+00 0.0000000000000000e+00  0.0000000000000000e+00 0.0000000000000000e+00 0.0000000000000000e+00  0.0000000000000000e+00 0.0000000000000000e+00 0.0000000000000000e+00  0.0000000000000000e+00 0.0000000000000000e+00 0.0000000000000000e+00  0.0000000000000000e+00 0.0000000000000000e+00 0.0000000000000000e+00  0.0000000000000000e+00 0.0000000000000000e+00 0.0000000000000000e+00  0.0000000000000000e+00 0.0000000000000000e+00 0.0000000000000000e+00  0.0000000000000000e+00 0.0000000000000000e+00 0.0000000000000000e+00  0.0000000000000000e+00 0.0000000000000000e+00 0.0000000000000000e+00  0.0000000000000000e+00 0.0000000000000000e+00 0.0000000000000000e+00  0.0000000000000000e+00 0.0000000000000000e+00 0.0000000000000000e+00  0.0000000000000000e+00 0.0000000000000000e+00 0.0000000000000000e+00  0.0000000000000000e+00 0.0000000000000000e+00 0.0000000000000000e+00  0.0000000000000000e+00 0.0000000000000000e+00 0.0000000000000000e+00  0.0000000000000000e+00 0.0000000000000000e+00 0.0000000000000000e+00  0.0000000000000000e+00 0.0000000000000000e+00 0.0000000000000000e+00  0.0000000000000000e+00 0.0000000000000000e+00 0.0000000000000000e+00  -6.2528382104018728e-08 -2.4631519278630658e-08 0.0000000000000000e+00  -1.3430246273881643e-07 1.1473175168639898e-07 0.0000000000000000e+00  -5.5957266613422135e-08 3.0665503970126650e-09 0.0000000000000000e+00  -2.5673994014860669e-07 -3.1746199047905919e-08 0.0000000000000000e+00  -2.5294782588194521e-07 -5.9803035035845049e-08 0.0000000000000000e+00  -2.5296615279991752e-07 -6.6862327642283791e-08 0.0000000000000000e+00  -2.5551520008413182e-07 -6.1624699146498296e-08 0.0000000000000000e+00  -2.4598946463415558e-07 -5.3584585451907678e-08 0.0000000000000000e+00  -2.3650191055321027e-07 -4.4205480294993212e-08 0.0000000000000000e+00  -2.2748641242733576e-07 -3.4685699524559918e-08 0.0000000000000000e+00  -2.2044377912530535e-07 -2.5483421258507768e-08 0.0000000000000000e+00  -2.1677618778532969e-07 -1.6705440597912429e-08 0.0000000000000000e+00  -2.1705095783461405e-07 -8.3927098148670954e-09 0.0000000000000000e+00  -2.2170198837431142e-07 -5.1614113609254277e-10 0.0000000000000000e+00  -2.3099471924770822e-07 6.9891260881807622e-09 0.0000000000000000e+00  -2.4509532490925850e-07 1.4195034002785618e-08 0.0000000000000000e+00  -2.6411779947834600e-07 2.1149832936518587e-08 0.0000000000000000e+00  -2.8811299867552066e-07 2.7842474287781155e-08 0.0000000000000000e+00  -3.1702913742170511e-07 3.4169552416633699e-08 0.0000000000000000e+00  -3.5064136186398227e-07 3.9914945839423438e-08 0.0000000000000000e+00  -3.8846560754302952e-07 4.4752982879130829e-08 0.0000000000000000e+00  -4.2968226871756813e-07 4.8281981759720870e-08 0.0000000000000000e+00  -4.7309438201329034e-07 5.0085947378158007e-08 0.0000000000000000e+00  -5.1714791262514731e-07 4.9811396930108604e-08 0.0000000000000000e+00  -5.6001177648466249e-07 4.7238941410838344e-08 0.0000000000000000e+00  -5.9972726482699592e-07 4.2328396890905900e-08 0.0000000000000000e+00  -6.3435484368548926e-07 3.5227035564807726e-08 0.0000000000000000e+00  -6.6217225763279083e-07 2.6235786057224413e-08 0.0000000000000000e+00  -6.8170777294155134e-07 1.5758979629573599e-08 0.0000000000000000e+00  -6.9197490002209010e-07 4.2211846788873410e-09 0.0000000000000000e+00  -6.9211515729218014e-07 -7.9507499811084017e-09 0.0000000000000000e+00  -6.8210639246539166e-07 -2.0460687409743566e-08 0.0000000000000000e+00  -6.6114748312811849e-07 -3.2944695121851698e-08 0.0000000000000000e+00  -6.3080609538014187e-07 -4.5454794722631686e-08 0.0000000000000000e+00  -5.8830281169595062e-07 -5.7338894423828818e-08 0.0000000000000000e+00  -5.4024879201170101e-07 -6.9658231346540255e-08 0.0000000000000000e+00  -4.7420763825287652e-07 -7.9720946296358384e-08 0.0000000000000000e+00  -4.1725650222564707e-07 -9.2924032397442512e-08 0.0000000000000000e+00  -3.1585371966632752e-07 -9.6772357473129628e-08 0.0000000000000000e+00  -2.8166331078479269e-07 -1.1665884537813668e-07 0.0000000000000000e+00  -9.1456234817915472e-08 -9.6063245012700101e-08 0.0000000000000000e+00  -2.0010692616979935e-07 -1.4945975389282124e-07 0.0000000000000000e+00  2.9438294498874543e-07 -3.1326764369305363e-08 0.0000000000000000e+00  -4.3689538155085319e-07 -2.3806263403597894e-07 0.0000000000000000e+00  1.1221308479957463e-06 2.3201353702251084e-07 0.0000000000000000e+00  -2.4806772403835529e-06 -7.5815514304019025e-07 0.0000000000000000e+00  2.9264190074489585e-06 1.3367101999392682e-06 0.0000000000000000e+00  0.0000000000000000e+00 0.0000000000000000e+00 0.0000000000000000e+00  0.0000000000000000e+00 0.0000000000000000e+00 0.0000000000000000e+00  -1.4487756731187328e-06 6.2341089613742545e-07 0.0000000000000000e+00  7.8507827826851420e-07 -2.8737790537653774e-08 0.0000000000000000e+00  -9.4377040025730344e-08 1.2058113541847559e-07 0.0000000000000000e+00  -2.5744158668187829e-07 8.4253133787161779e-09 0.0000000000000000e+00  -2.7597330780675529e-07 -4.2442987778950647e-08 0.0000000000000000e+00  -3.4317954635223344e-07 -6.6698165160099811e-08 0.0000000000000000e+00  -3.5207195474489718e-07 -7.4379964288670837e-08 0.0000000000000000e+00  -3.5083416122412320e-07 -7.2663625731217826e-08 0.0000000000000000e+00  -3.4487605457893477e-07 -6.5256018503745196e-08 0.0000000000000000e+00  -3.3546497006271177e-07 -5.4693139474103194e-08 0.0000000000000000e+00  -3.2729914169334589e-07 -4.2319050985309116e-08 0.0000000000000000e+00  -3.2171497484573501e-07 -2.8990827457325783e-08 0.0000000000000000e+00  -3.1979148926160992e-07 -1.5249162066186359e-08 0.0000000000000000e+00  -3.2224692000735327e-07 -1.3997027760555874e-09 0.0000000000000000e+00  -3.2945472823446748e-07 1.2404882320204254e-08 0.0000000000000000e+00  -3.4165276060445335e-07 2.6096223632865635e-08 0.0000000000000000e+00  -3.5897157503419508e-07 3.9617616576225557e-08 0.0000000000000000e+00  -3.8145226500742771e-07 5.2842997887502105e-08 0.0000000000000000e+00  -4.0901820760066854e-07 6.5498964881088090e-08 0.0000000000000000e+00  -4.4140162748756412e-07 7.7109354078195520e-08 0.0000000000000000e+00  -4.7804557406882837e-07 8.6986313503460826e-08 0.0000000000000000e+00  -5.1801120681470609e-07 9.4285993814094724e-08 0.0000000000000000e+00  -5.5992607185282046e-07 9.8128234505667505e-08 0.0000000000000000e+00  -6.0201252355561044e-07 9.7754943304087431e-08 0.0000000000000000e+00  -6.4219653558991175e-07 9.2683138282314183e-08 0.0000000000000000e+00  -6.7830424939354494e-07 8.2805423368240525e-08 0.0000000000000000e+00  -7.0825395672549548e-07 6.8410851996631160e-08 0.0000000000000000e+00  -7.3029340417499163e-07 5.0119348144828650e-08 0.0000000000000000e+00  -7.4303403770505131e-07 2.8769735564784067e-08 0.0000000000000000e+00  -7.4569006049874810e-07 5.2640300840408203e-09 0.0000000000000000e+00  -7.3765962880049180e-07 -1.9511352429087619e-08 0.0000000000000000e+00  -7.1926112357260882e-07 -4.4859434296469927e-08 0.0000000000000000e+00  -6.8998365685231257e-07 -7.0088253441478022e-08 0.0000000000000000e+00  -6.5181781012330096e-07 -9.4978183115417339e-08 0.0000000000000000e+00  -6.0220241736332749e-07 -1.1866625939248452e-07 0.0000000000000000e+00  -5.4835929354349641e-07 -1.4192970465989715e-07 0.0000000000000000e+00  -4.7793243673692305e-07 -1.6195320767909480e-07 0.0000000000000000e+00  -4.1905234393418328e-07 -1.8338960707464052e-07 0.0000000000000000e+00  -3.1818266454621807e-07 -1.9418515711000711e-07 0.0000000000000000e+00  -2.8840003379048760e-07 -2.1680526424310575e-07 0.0000000000000000e+00  -1.0771149385847557e-07 -1.9909862792489256e-07 0.0000000000000000e+00  -2.3003838248883385e-07 -2.4327099884927393e-07 0.0000000000000000e+00  2.3530968543682712e-07 -1.2956676625687908e-07 0.0000000000000000e+00  -5.1473656584123617e-07 -3.0325278343794653e-07 0.0000000000000000e+00  9.3318611730458072e-07 1.2678613178327464e-07 0.0000000000000000e+00  -2.4962508863550784e-06 -6.4274064665600114e-07 0.0000000000000000e+00  2.8538096201316652e-06 1.3390637295475709e-06 0.0000000000000000e+00  0.0000000000000000e+00 0.0000000000000000e+00 0.0000000000000000e+00  0.0000000000000000e+00 0.0000000000000000e+00 0.0000000000000000e+00  -2.5417804062502345e-06 1.0933175047697892e-06 0.0000000000000000e+00  1.7286787872827935e-06 -1.3495060100530662e-07 0.0000000000000000e+00  -3.7791242295015680e-07 2.7494656980958642e-07 0.0000000000000000e+00  1.6869347450078681e-08 3.1391233891833801e-08 0.0000000000000000e+00  -1.2994120311022718e-07 5.7174114080556635e-09 0.0000000000000000e+00  -1.9396440963730177e-07 -4.5743003688474903e-08 0.0000000000000000e+00  -2.1806852775250386e-07 -6.5292343705928720e-08 0.0000000000000000e+00  -2.5283248645880899e-07 -7.1252201822628918e-08 0.0000000000000000e+00  -2.7216983988738304e-07 -6.7543217931043201e-08 0.0000000000000000e+00  -2.8634758363682884e-07 -5.7670437528623287e-08 0.0000000000000000e+00  -2.9762514214313147e-07 -4.4058124246073940e-08 0.0000000000000000e+00  -3.0723697496360239e-07 -2.8240339922499949e-08 0.0000000000000000e+00  -3.1705459186094618e-07 -1.1228950869569557e-08 0.0000000000000000e+00  -3.2805203867558486e-07 6.3568393743348541e-09 0.0000000000000000e+00  -3.4097950268134088e-07 2.4167076262478207e-08 0.0000000000000000e+00  -3.5638099288693685e-07 4.2020475214546171e-08 0.0000000000000000e+00  -3.7463739445986789e-07 5.9796090024829828e-08 0.0000000000000000e+00  -3.9602229210605236e-07 7.7307906709600749e-08 0.0000000000000000e+00  -4.2068040730596426e-07 9.4176842678913417e-08 0.0000000000000000e+00  -4.4855993535492313e-07 1.0972882399059339e-07 0.0000000000000000e+00  -4.7930376949779705e-07 1.2296220798200913e-07 0.0000000000000000e+00  -5.1213734756510946e-07 1.3262124982272163e-07 0.0000000000000000e+00  -5.4580431630404387e-07 1.3738127752908971e-07 0.0000000000000000e+00  -5.7860556206633815e-07 1.3610534395167602e-07 0.0000000000000000e+00  -6.0854806815336364e-07 1.2809492213521234e-07 0.0000000000000000e+00  -6.3360265222976208e-07 1.1325069719226117e-07 0.0000000000000000e+00  -6.5195157305989418e-07 9.2095178692211288e-08 0.0000000000000000e+00  -6.6225814001590165e-07 6.5653210609111285e-08 0.0000000000000000e+00  -6.6368535200664689e-07 3.5254963731148409e-08 0.0000000000000000e+00  -6.5610318530123463e-07 2.2925074164062212e-09 0.0000000000000000e+00  -6.3959029820594848e-07 -3.1921227862513905e-08 0.0000000000000000e+00  -6.1516014014283050e-07 -6.6360799089635931e-08 0.0000000000000000e+00  -5.8289832840858692e-07 -1.0009580757956506e-07 0.0000000000000000e+00  -5.4543192074834234e-07 -1.3274648713539640e-07 0.0000000000000000e+00  -5.0060839228667478e-07 -1.6331472171457089e-07 0.0000000000000000e+00  -4.5633979752648384e-07 -1.9244784379324007e-07 0.0000000000000000e+00  -4.0039834076732733e-07 -2.1718159740443662e-07 0.0000000000000000e+00  -3.6190164325103733e-07 -2.4185256386165871e-07 0.0000000000000000e+00  -2.8695510032308450e-07 -2.5446139823446518e-07 0.0000000000000000e+00  -2.8970788585744883e-07 -2.7628637485772358e-07 0.0000000000000000e+00  -1.4816826272595589e-07 -2.5784190609782883e-07 0.0000000000000000e+00  -3.1231444277594183e-07 -2.9536046315066689e-07 0.0000000000000000e+00  9.7058853201052196e-08 -1.8862674517190053e-07 0.0000000000000000e+00  -6.8207158630596985e-07 -3.4543234325758867e-07 0.0000000000000000e+00  6.8457719282460768e-07 3.0945856365050063e-08 0.0000000000000000e+00  -2.6685152124678164e-06 -6.2772673651299761e-07 0.0000000000000000e+00  2.4947317043319525e-06 1.1048101361412253e-06 0.0000000000000000e+00  0.0000000000000000e+00 0.0000000000000000e+00 0.0000000000000000e+00  0.0000000000000000e+00 0.0000000000000000e+00 0.0000000000000000e+00  -2.8031044190549457e-06 1.1423403985144508e-06 0.0000000000000000e+00  2.3350969185034611e-06 -1.6743896506096718e-07 0.0000000000000000e+00  -6.9140873328947677e-07 3.5043086965482526e-07 0.0000000000000000e+00  2.7709678559195225e-07 4.1542100974653219e-08 0.0000000000000000e+00  -1.5323381081839601e-07 7.7049837605557575e-08 0.0000000000000000e+00  -1.0136794764560632e-07 -3.2021743102680382e-09 0.0000000000000000e+00  -1.5443029897137160e-07 -2.4529762821327928e-08 0.0000000000000000e+00  -1.9556255858827195e-07 -4.2131527094567650e-08 0.0000000000000000e+00  -2.2186810116157308e-07 -4.5512296542914780e-08 0.0000000000000000e+00  -2.4740267488162187e-07 -4.0878452044676782e-08 0.0000000000000000e+00  -2.6738662854189066e-07 -3.0380748588337814e-08 0.0000000000000000e+00  -2.8477779559267984e-07 -1.5992366881906938e-08 0.0000000000000000e+00  -3.0082373492251116e-07 8.4017102501390803e-10 0.0000000000000000e+00  -3.1634099245761456e-07 1.9163615234326654e-08 0.0000000000000000e+00  -3.3215762656457578e-07 3.8359379053131172e-08 0.0000000000000000e+00  -3.4882011849249632e-07 5.8070273437117514e-08 0.0000000000000000e+00  -3.6677623538170185e-07 7.8066112060620892e-08 0.0000000000000000e+00  -3.8640062840127214e-07 9.8081725513465840e-08 0.0000000000000000e+00  -4.0798089105661450e-07 1.1763027387685331e-07 0.0000000000000000e+00  -4.3164399389401177e-07 1.3583451493945071e-07 0.0000000000000000e+00  -4.5721152902448025e-07 1.5134954669399787e-07 0.0000000000000000e+00  -4.8403806363047251e-07 1.6244737796743176e-07 0.0000000000000000e+00  -5.1090739642583786e-07 1.6728624474939704e-07 0.0000000000000000e+00  -5.3607548576457911e-07 1.6430415477155979e-07 0.0000000000000000e+00  -5.5747965227333440e-07 1.5260466485479252e-07 0.0000000000000000e+00  -5.7309838521810085e-07 1.3219115929789089e-07 0.0000000000000000e+00  -5.8129081978459719e-07 1.0397083198001035e-07 0.0000000000000000e+00  -5.8111689731525044e-07 6.9538317860643624e-08 0.0000000000000000e+00  -5.7231945223766088e-07 3.0848197236775228e-08 0.0000000000000000e+00  -5.5547736312542468e-07 -1.0143360662162072e-08 0.0000000000000000e+00  -5.3136466537925842e-07 -5.1688479543568640e-08 0.0000000000000000e+00  -5.0168524344950370e-07 -9.2470896886918248e-08 0.0000000000000000e+00  -4.6698508456530792e-07 -1.3139183849902434e-07 0.0000000000000000e+00  -4.3044186965286021e-07 -1.6797112099040024e-07 0.0000000000000000e+00  -3.8989654347528556e-07 -2.0115747270113517e-07 0.0000000000000000e+00  -3.5394535345888343e-07 -2.3148060003112749e-07 0.0000000000000000e+00  -3.0938690309731840e-07 -2.5597662930314160e-07 0.0000000000000000e+00  -2.8708147608578306e-07 -2.7860766815337187e-07 0.0000000000000000e+00  -2.2937335253827655e-07 -2.8794764148549483e-07 0.0000000000000000e+00  -2.5598426032757357e-07 -3.0391024585594984e-07 0.0000000000000000e+00  -1.3267707755872377e-07 -2.8112275919286381e-07 0.0000000000000000e+00  -3.2700030199088131e-07 -3.0930390846255107e-07 0.0000000000000000e+00  7.5678184511575611e-08 -2.0852533391418301e-07 0.0000000000000000e+00  -7.3531313552673324e-07 -3.4964481947443852e-07 0.0000000000000000e+00  6.5399165117487207e-07 -1.9715522909077690e-08 0.0000000000000000e+00  -2.7041873479077019e-06 -5.9864876026321129e-07 0.0000000000000000e+00  2.4859655736423254e-06 9.3506603720350707e-07 0.0000000000000000e+00  0.0000000000000000e+00 0.0000000000000000e+00 0.0000000000000000e+00  0.0000000000000000e+00 0.0000000000000000e+00 0.0000000000000000e+00  -2.7536110727256816e-06 1.0440761384890948e-06 0.0000000000000000e+00  2.5787408761236202e-06 -1.4745873727486198e-07 0.0000000000000000e+00  -8.3504904291205074e-07 3.5097991745619209e-07 0.0000000000000000e+00  4.8572581022000960e-07 5.2481236266005067e-08 0.0000000000000000e+00  -2.0319117394810410e-07 1.3048259130484913e-07 0.0000000000000000e+00  1.1013354480645697e-08 3.3654475232869971e-08 0.0000000000000000e+00  -1.0543814934100965e-07 2.0527263121427626e-08 0.0000000000000000e+00  -1.2432650163511501e-07 -7.2888549491673667e-09 0.0000000000000000e+00  -1.5939418139946982e-07 -1.4762723942019027e-08 0.0000000000000000e+00  -1.9096611237242294e-07 -1.5485036928346999e-08 0.0000000000000000e+00  -2.1669324241271122e-07 -8.5293105503562207e-09 0.0000000000000000e+00  -2.4048249552836210e-07 3.3652157647971453e-09 0.0000000000000000e+00  -2.6178146500534978e-07 1.8721015729089761e-08 0.0000000000000000e+00  -2.8160919527016199e-07 3.6346269187591748e-08 0.0000000000000000e+00  -3.0058371900066333e-07 5.5422969473965405e-08 0.0000000000000000e+00  -3.1916360472904523e-07 7.5467878342149475e-08 0.0000000000000000e+00  -3.3780400214807711e-07 9.6189160832482536e-08 0.0000000000000000e+00  -3.5692977645304874e-07 1.1730896264702599e-07 0.0000000000000000e+00  -3.7696192662255149e-07 1.3830576585552187e-07 0.0000000000000000e+00  -3.9822223505641021e-07 1.5814958336635122e-07 0.0000000000000000e+00  -4.2073222075807674e-07 1.7514200770953141e-07 0.0000000000000000e+00  -4.4396340146701311e-07 1.8699701925746112e-07 0.0000000000000000e+00  -4.6665678375938881e-07 1.9122740479975816e-07 0.0000000000000000e+00  -4.8686314997749624e-07 1.8574821558653449e-07 0.0000000000000000e+00  -5.0225257655437138e-07 1.6946941074744773e-07 0.0000000000000000e+00  -5.1064629203103850e-07 1.4262805553180975e-07 0.0000000000000000e+00  -5.1050870610854023e-07 1.0673589633434827e-07 0.0000000000000000e+00  -5.0133101005180127e-07 6.4189346328067220e-08 0.0000000000000000e+00  -4.8354339182124881e-07 1.7737455868215188e-08 0.0000000000000000e+00  -4.5854788340248219e-07 -3.0033162863101361e-08 0.0000000000000000e+00  -4.2789138203932270e-07 -7.6976739057163720e-08 0.0000000000000000e+00  -3.9395929461612123e-07 -1.2160092481324832e-07 0.0000000000000000e+00  -3.5770154641304215e-07 -1.6279123301425810e-07 0.0000000000000000e+00  -3.2266717327155482e-07 -2.0013502646749151e-07 0.