<?xml version="1.0"?>
<VTKFile type="UnstructuredGrid"  version="0.1"  >
<UnstructuredGrid>
<Piece  NumberOfPoints="1617" NumberOfCells="3072">
<Points>
<DataArray  type="Float64"  NumberOfComponents="3"  format="ascii">0 0 0  0.03125 0 0  0.0625 0 0  0.09375 0 0  0.125 0 0  0.15625 0 0  0.1875 0 0  0.21875 0 0  0.25 0 0  0.28125 0 0  0.3125 0 0  0.34375 0 0  0.375 0 0  0.40625 0 0  0.4375 0 0  0.46875 0 0  0.5 0 0  0.53125 0 0  0.5625 0 0  0.59375 0 0  0.625 0 0  0.65625 0 0  0.6875 0 0  0.71875 0 0  0.75 0 0  0.78125 0 0  0.8125 0 0  0.84375 0 0  0.875 0 0  0.90625 0 0  0.9375 0 0  0.96875 0 0  1 0 0  1.03125 0 0  1.0625 0 0  1.09375 0 0  1.125 0 0  1.15625 0 0  1.1875 0 0  1.21875 0 0  1.25 0 0  1.28125 0 0  1.3125 0 0  1.34375 0 0  1.375 0 0  1.40625 0 0  1.4375 0 0  1.46875 0 0  1.5 0 0  0 0.03125 0  0.03125 0.03125 0  0.0625 0.03125 0  0.09375 0.03125 0  0.125 0.03125 0  0.15625 0.03125 0  0.1875 0.03125 0  0.21875 0.03125 0  0.25 0.03125 0  0.28125 0.03125 0  0.3125 0.03125 0  0.34375 0.03125 0  0.375 0.03125 0  0.40625 0.03125 0  0.4375 0.03125 0  0.46875 0.03125 0  0.5 0.03125 0  0.53125 0.03125 0  0.5625 0.03125 0  0.59375 0.03125 0  0.625 0.03125 0  0.65625 0.03125 0  0.6875 0.03125 0  0.71875 0.03125 0  0.75 0.03125 0  0.78125 0.03125 0  0.8125 0.03125 0  0.84375 0.03125 0  0.875 0.03125 0  0.90625 0.03125 0  0.9375 0.03125 0  0.96875 0.03125 0  1 0.03125 0  1.03125 0.03125 0  1.0625 0.03125 0  1.09375 0.03125 0  1.125 0.03125 0  1.15625 0.03125 0  1.1875 0.03125 0  1.21875 0.03125 0  1.25 0.03125 0  1.28125 0.03125 0  1.3125 0.03125 0  1.34375 0.03125 0  1.375 0.03125 0  1.40625 0.03125 0  1.4375 0.03125 0  1.46875 0.03125 0  1.5 0.03125 0  0 0.0625 0  0.03125 0.0625 0  0.0625 0.0625 0  0.09375 0.0625 0  0.125 0.0625 0  0.15625 0.0625 0  0.1875 0.0625 0  0.21875 0.0625 0  0.25 0.0625 0  0.28125 0.0625 0  0.3125 0.0625 0  0.34375 0.0625 0  0.375 0.0625 0  0.40625 0.0625 0  0.4375 0.0625 0  0.46875 0.0625 0  0.5 0.0625 0  0.53125 0.0625 0  0.5625 0.0625 0  0.59375 0.0625 0  0.625 0.0625 0  0.65625 0.0625 0  0.6875 0.0625 0  0.71875 0.0625 0  0.75 0.0625 0  0.78125 0.0625 0  0.8125 0.0625 0  0.84375 0.0625 0  0.875 0.0625 0  0.90625 0.0625 0  0.9375 0.0625 0  0.96875 0.0625 0  1 0.0625 0  1.03125 0.0625 0  1.0625 0.0625 0  1.09375 0.0625 0  1.125 0.0625 0  1.15625 0.0625 0  1.1875 0.0625 0  1.21875 0.0625 0  1.25 0.0625 0  1.28125 0.0625 0  1.3125 0.0625 0  1.34375 0.0625 0  1.375 0.0625 0  1.40625 0.0625 0  1.4375 0.0625 0  1.46875 0.0625 0  1.5 0.0625 0  0 0.09375 0  0.03125 0.09375 0  0.0625 0.09375 0  0.09375 0.09375 0  0.125 0.09375 0  0.15625 0.09375 0  0.1875 0.09375 0  0.21875 0.09375 0  0.25 0.09375 0  0.28125 0.09375 0  0.3125 0.09375 0  0.34375 0.09375 0  0.375 0.09375 0  0.40625 0.09375 0  0.4375 0.09375 0  0.46875 0.09375 0  0.5 0.09375 0  0.53125 0.09375 0  0.5625 0.09375 0  0.59375 0.09375 0  0.625 0.09375 0  0.65625 0.09375 0  0.6875 0.09375 0  0.71875 0.09375 0  0.75 0.09375 0  0.78125 0.09375 0  0.8125 0.09375 0  0.84375 0.09375 0  0.875 0.09375 0  0.90625 0.09375 0  0.9375 0.09375 0  0.96875 0.09375 0  1 0.09375 0  1.03125 0.09375 0  1.0625 0.09375 0  1.09375 0.09375 0  1.125 0.09375 0  1.15625 0.09375 0  1.1875 0.09375 0  1.21875 0.09375 0  1.25 0.09375 0  1.28125 0.09375 0  1.3125 0.09375 0  1.34375 0.09375 0  1.375 0.09375 0  1.40625 0.09375 0  1.4375 0.09375 0  1.46875 0.09375 0  1.5 0.09375 0  0 0.125 0  0.03125 0.125 0  0.0625 0.125 0  0.09375 0.125 0  0.125 0.125 0  0.15625 0.125 0  0.1875 0.125 0  0.21875 0.125 0  0.25 0.125 0  0.28125 0.125 0  0.3125 0.125 0  0.34375 0.125 0  0.375 0.125 0  0.40625 0.125 0  0.4375 0.125 0  0.46875 0.125 0  0.5 0.125 0  0.53125 0.125 0  0.5625 0.125 0  0.59375 0.125 0  0.625 0.125 0  0.65625 0.125 0  0.6875 0.125 0  0.71875 0.125 0  0.75 0.125 0  0.78125 0.125 0  0.8125 0.125 0  0.84375 0.125 0  0.875 0.125 0  0.90625 0.125 0  0.9375 0.125 0  0.96875 0.125 0  1 0.125 0  1.03125 0.125 0  1.0625 0.125 0  1.09375 0.125 0  1.125 0.125 0  1.15625 0.125 0  1.1875 0.125 0  1.21875 0.125 0  1.25 0.125 0  1.28125 0.125 0  1.3125 0.125 0  1.34375 0.125 0  1.375 0.125 0  1.40625 0.125 0  1.4375 0.125 0  1.46875 0.125 0  1.5 0.125 0  0 0.15625 0  0.03125 0.15625 0  0.0625 0.15625 0  0.09375 0.15625 0  0.125 0.15625 0  0.15625 0.15625 0  0.1875 0.15625 0  0.21875 0.15625 0  0.25 0.15625 0  0.28125 0.15625 0  0.3125 0.15625 0  0.34375 0.15625 0  0.375 0.15625 0  0.40625 0.15625 0  0.4375 0.15625 0  0.46875 0.15625 0  0.5 0.15625 0  0.53125 0.15625 0  0.5625 0.15625 0  0.59375 0.15625 0  0.625 0.15625 0  0.65625 0.15625 0  0.6875 0.15625 0  0.71875 0.15625 0  0.75 0.15625 0  0.78125 0.15625 0  0.8125 0.15625 0  0.84375 0.15625 0  0.875 0.15625 0  0.90625 0.15625 0  0.9375 0.15625 0  0.96875 0.15625 0  1 0.15625 0  1.03125 0.15625 0  1.0625 0.15625 0  1.09375 0.15625 0  1.125 0.15625 0  1.15625 0.15625 0  1.1875 0.15625 0  1.21875 0.15625 0  1.25 0.15625 0  1.28125 0.15625 0  1.3125 0.15625 0  1.34375 0.15625 0  1.375 0.15625 0  1.40625 0.15625 0  1.4375 0.15625 0  1.46875 0.15625 0  1.5 0.15625 0  0 0.1875 0  0.03125 0.1875 0  0.0625 0.1875 0  0.09375 0.1875 0  0.125 0.1875 0  0.15625 0.1875 0  0.1875 0.1875 0  0.21875 0.1875 0  0.25 0.1875 0  0.28125 0.1875 0  0.3125 0.1875 0  0.34375 0.1875 0  0.375 0.1875 0  0.40625 0.1875 0  0.4375 0.1875 0  0.46875 0.1875 0  0.5 0.1875 0  0.53125 0.1875 0  0.5625 0.1875 0  0.59375 0.1875 0  0.625 0.1875 0  0.65625 0.1875 0  0.6875 0.1875 0  0.71875 0.1875 0  0.75 0.1875 0  0.78125 0.1875 0  0.8125 0.1875 0  0.84375 0.1875 0  0.875 0.1875 0  0.90625 0.1875 0  0.9375 0.1875 0  0.96875 0.1875 0  1 0.1875 0  1.03125 0.1875 0  1.0625 0.1875 0  1.09375 0.1875 0  1.125 0.1875 0  1.15625 0.1875 0  1.1875 0.1875 0  1.21875 0.1875 0  1.25 0.1875 0  1.28125 0.1875 0  1.3125 0.1875 0  1.34375 0.1875 0  1.375 0.1875 0  1.40625 0.1875 0  1.4375 0.1875 0  1.46875 0.1875 0  1.5 0.1875 0  0 0.21875 0  0.03125 0.21875 0  0.0625 0.21875 0  0.09375 0.21875 0  0.125 0.21875 0  0.15625 0.21875 0  0.1875 0.21875 0  0.21875 0.21875 0  0.25 0.21875 0  0.28125 0.21875 0  0.3125 0.21875 0  0.34375 0.21875 0  0.375 0.21875 0  0.40625 0.21875 0  0.4375 0.21875 0  0.46875 0.21875 0  0.5 0.21875 0  0.53125 0.21875 0  0.5625 0.21875 0  0.59375 0.21875 0  0.625 0.21875 0  0.65625 0.21875 0  0.6875 0.21875 0  0.71875 0.21875 0  0.75 0.21875 0  0.78125 0.21875 0  0.8125 0.21875 0  0.84375 0.21875 0  0.875 0.21875 0  0.90625 0.21875 0  0.9375 0.21875 0  0.96875 0.21875 0  1 0.21875 0  1.03125 0.21875 0  1.0625 0.21875 0  1.09375 0.21875 0  1.125 0.21875 0  1.15625 0.21875 0  1.1875 0.21875 0  1.21875 0.21875 0  1.25 0.21875 0  1.28125 0.21875 0  1.3125 0.21875 0  1.34375 0.21875 0  1.375 0.21875 0  1.40625 0.21875 0  1.4375 0.21875 0  1.46875 0.21875 0  1.5 0.21875 0  0 0.25 0  0.03125 0.25 0  0.0625 0.25 0  0.09375 0.25 0  0.125 0.25 0  0.15625 0.25 0  0.1875 0.25 0  0.21875 0.25 0  0.25 0.25 0  0.28125 0.25 0  0.3125 0.25 0  0.34375 0.25 0  0.375 0.25 0  0.40625 0.25 0  0.4375 0.25 0  0.46875 0.25 0  0.5 0.25 0  0.53125 0.25 0  0.5625 0.25 0  0.59375 0.25 0  0.625 0.25 0  0.65625 0.25 0  0.6875 0.25 0  0.71875 0.25 0  0.75 0.25 0  0.78125 0.25 0  0.8125 0.25 0  0.84375 0.25 0  0.875 0.25 0  0.90625 0.25 0  0.9375 0.25 0  0.96875 0.25 0  1 0.25 0  1.03125 0.25 0  1.0625 0.25 0  1.09375 0.25 0  1.125 0.25 0  1.15625 0.25 0  1.1875 0.25 0  1.21875 0.25 0  1.25 0.25 0  1.28125 0.25 0  1.3125 0.25 0  1.34375 0.25 0  1.375 0.25 0  1.40625 0.25 0  1.4375 0.25 0  1.46875 0.25 0  1.5 0.25 0  0 0.28125 0  0.03125 0.28125 0  0.0625 0.28125 0  0.09375 0.28125 0  0.125 0.28125 0  0.15625 0.28125 0  0.1875 0.28125 0  0.21875 0.28125 0  0.25 0.28125 0  0.28125 0.28125 0  0.3125 0.28125 0  0.34375 0.28125 0  0.375 0.28125 0  0.40625 0.28125 0  0.4375 0.28125 0  0.46875 0.28125 0  0.5 0.28125 0  0.53125 0.28125 0  0.5625 0.28125 0  0.59375 0.28125 0  0.625 0.28125 0  0.65625 0.28125 0  0.6875 0.28125 0  0.71875 0.28125 0  0.75 0.28125 0  0.78125 0.28125 0  0.8125 0.28125 0  0.84375 0.28125 0  0.875 0.28125 0  0.90625 0.28125 0  0.9375 0.28125 0  0.96875 0.28125 0  1 0.28125 0  1.03125 0.28125 0  1.0625 0.28125 0  1.09375 0.28125 0  1.125 0.28125 0  1.15625 0.28125 0  1.1875 0.28125 0  1.21875 0.28125 0  1.25 0.28125 0  1.28125 0.28125 0  1.3125 0.28125 0  1.34375 0.28125 0  1.375 0.28125 0  1.40625 0.28125 0  1.4375 0.28125 0  1.46875 0.28125 0  1.5 0.28125 0  0 0.3125 0  0.03125 0.3125 0  0.0625 0.3125 0  0.09375 0.3125 0  0.125 0.3125 0  0.15625 0.3125 0  0.1875 0.3125 0  0.21875 0.3125 0  0.25 0.3125 0  0.28125 0.3125 0  0.3125 0.3125 0  0.34375 0.3125 0  0.375 0.3125 0  0.40625 0.3125 0  0.4375 0.3125 0  0.46875 0.3125 0  0.5 0.3125 0  0.53125 0.3125 0  0.5625 0.3125 0  0.59375 0.3125 0  0.625 0.3125 0  0.65625 0.3125 0  0.6875 0.3125 0  0.71875 0.3125 0  0.75 0.3125 0  0.78125 0.3125 0  0.8125 0.3125 0  0.84375 0.3125 0  0.875 0.3125 0  0.90625 0.3125 0  0.9375 0.3125 0  0.96875 0.3125 0  1 0.3125 0  1.03125 0.3125 0  1.0625 0.3125 0  1.09375 0.3125 0  1.125 0.3125 0  1.15625 0.3125 0  1.1875 0.3125 0  1.21875 0.3125 0  1.25 0.3125 0  1.28125 0.3125 0  1.3125 0.3125 0  1.34375 0.3125 0  1.375 0.3125 0  1.40625 0.3125 0  1.4375 0.3125 0  1.46875 0.3125 0  1.5 0.3125 0  0 0.34375 0  0.03125 0.34375 0  0.0625 0.34375 0  0.09375 0.34375 0  0.125 0.34375 0  0.15625 0.34375 0  0.1875 0.34375 0  0.21875 0.34375 0  0.25 0.34375 0  0.28125 0.34375 0  0.3125 0.34375 0  0.34375 0.34375 0  0.375 0.34375 0  0.40625 0.34375 0  0.4375 0.34375 0  0.46875 0.34375 0  0.5 0.34375 0  0.53125 0.34375 0  0.5625 0.34375 0  0.59375 0.34375 0  0.625 0.34375 0  0.65625 0.34375 0  0.6875 0.34375 0  0.71875 0.34375 0  0.75 0.34375 0  0.78125 0.34375 0  0.8125 0.34375 0  0.84375 0.34375 0  0.875 0.34375 0  0.90625 0.34375 0  0.9375 0.34375 0  0.96875 0.34375 0  1 0.34375 0  1.03125 0.34375 0  1.0625 0.34375 0  1.09375 0.34375 0  1.125 0.34375 0  1.15625 0.34375 0  1.1875 0.34375 0  1.21875 0.34375 0  1.25 0.34375 0  1.28125 0.34375 0  1.3125 0.34375 0  1.34375 0.34375 0  1.375 0.34375 0  1
[...]
<PointData  Vectors="f_17"> 
<DataArray  type="Float64"  Name="f_17"  NumberOfComponents="3" format="ascii">0.0000000000000000e+00 0.0000000000000000e+00 0.0000000000000000e+00  0.0000000000000000e+00 0.0000000000000000e+00 0.0000000000000000e+00  0.0000000000000000e+00 0.0000000000000000e+00 0.0000000000000000e+00  0.0000000000000000e+00 0.0000000000000000e+00 0.0000000000000000e+00  0.0000000000000000e+00 0.0000000000000000e+00 0.0000000000000000e+00  0.0000000000000000e+00 0.0000000000000000e+00 0.0000000000000000e+00  0.0000000000000000e+00 0.0000000000000000e+00 0.0000000000000000e+00  0.0000000000000000e+00 0.0000000000000000e+00 0.0000000000000000e+00  0.0000000000000000e+00 0.0000000000000000e+00 0.0000000000000000e+00  0.0000000000000000e+00 0.0000000000000000e+00 0.0000000000000000e+00  0.0000000000000000e+00 0.0000000000000000e+00 0.0000000000000000e+00  0.0000000000000000e+00 0.0000000000000000e+00 0.0000000000000000e+00  0.0000000000000000e+00 0.0000000000000000e+00 0.0000000000000000e+00  0.0000000000000000e+00 0.0000000000000000e+00 0.0000000000000000e+00  0.0000000000000000e+00 0.0000000000000000e+00 0.0000000000000000e+00  0.0000000000000000e+00 0.0000000000000000e+00 0.0000000000000000e+00  0.0000000000000000e+00 0.0000000000000000e+00 0.0000000000000000e+00  0.0000000000000000e+00 0.0000000000000000e+00 0.0000000000000000e+00  0.0000000000000000e+00 0.0000000000000000e+00 0.0000000000000000e+00  0.0000000000000000e+00 0.0000000000000000e+00 0.0000000000000000e+00  0.0000000000000000e+00 0.0000000000000000e+00 0.0000000000000000e+00  0.0000000000000000e+00 0.0000000000000000e+00 0.0000000000000000e+00  0.0000000000000000e+00 0.0000000000000000e+00 0.0000000000000000e+00  0.0000000000000000e+00 0.0000000000000000e+00 0.0000000000000000e+00  0.0000000000000000e+00 0.0000000000000000e+00 0.0000000000000000e+00  0.0000000000000000e+00 0.0000000000000000e+00 0.0000000000000000e+00  0.0000000000000000e+00 0.0000000000000000e+00 0.0000000000000000e+00  0.0000000000000000e+00 0.0000000000000000e+00 0.0000000000000000e+00  0.0000000000000000e+00 0.0000000000000000e+00 0.0000000000000000e+00  0.0000000000000000e+00 0.0000000000000000e+00 0.0000000000000000e+00  0.0000000000000000e+00 0.0000000000000000e+00 0.0000000000000000e+00  0.0000000000000000e+00 0.0000000000000000e+00 0.0000000000000000e+00  0.0000000000000000e+00 0.0000000000000000e+00 0.0000000000000000e+00  0.0000000000000000e+00 0.0000000000000000e+00 0.0000000000000000e+00  0.0000000000000000e+00 0.0000000000000000e+00 0.0000000000000000e+00  0.0000000000000000e+00 0.0000000000000000e+00 0.0000000000000000e+00  0.0000000000000000e+00 0.0000000000000000e+00 0.0000000000000000e+00  0.0000000000000000e+00 0.0000000000000000e+00 0.0000000000000000e+00  0.0000000000000000e+00 0.0000000000000000e+00 0.0000000000000000e+00  0.0000000000000000e+00 0.0000000000000000e+00 0.0000000000000000e+00  0.0000000000000000e+00 0.0000000000000000e+00 0.0000000000000000e+00  0.0000000000000000e+00 0.0000000000000000e+00 0.0000000000000000e+00  0.0000000000000000e+00 0.0000000000000000e+00 0.0000000000000000e+00  0.0000000000000000e+00 0.0000000000000000e+00 0.0000000000000000e+00  0.0000000000000000e+00 0.0000000000000000e+00 0.0000000000000000e+00  0.0000000000000000e+00 0.0000000000000000e+00 0.0000000000000000e+00  0.0000000000000000e+00 0.0000000000000000e+00 0.0000000000000000e+00  0.0000000000000000e+00 0.0000000000000000e+00 0.0000000000000000e+00  0.0000000000000000e+00 0.0000000000000000e+00 0.0000000000000000e+00  0.0000000000000000e+00 0.0000000000000000e+00 0.0000000000000000e+00  1.0760089904376089e-07 -6.7890650519182436e-08 0.0000000000000000e+00  -1.5051971423917118e-07 9.3158931038672581e-08 0.0000000000000000e+00  -4.8601315352300621e-08 -5.7828933112534468e-09 0.0000000000000000e+00  -2.3956309718069989e-07 -3.6848318861829464e-08 0.0000000000000000e+00  -2.3129523854536378e-07 -6.2528693179345649e-08 0.0000000000000000e+00  -2.2798048758480626e-07 -6.8434606607664696e-08 0.0000000000000000e+00  -2.2802529458262313e-07 -6.2665656897651222e-08 0.0000000000000000e+00  -2.1654749896410798e-07 -5.4431634118084304e-08 0.0000000000000000e+00  -2.0545100606612463e-07 -4.5029140747411282e-08 0.0000000000000000e+00  -1.9499675798388015e-07 -3.5576382596085636e-08 0.0000000000000000e+00  -1.8655896054391851e-07 -2.6495480831956145e-08 0.0000000000000000e+00  -1.8145089627268706e-07 -1.7876323880071617e-08 0.0000000000000000e+00  -1.8018045858880583e-07 -9.7494434855200703e-09 0.0000000000000000e+00  -1.8314303025648212e-07 -2.0772985591420454e-09 0.0000000000000000e+00  -1.9058079415397063e-07 5.2130530438414985e-09 0.0000000000000000e+00  -2.0264861770141953e-07 1.2201977741589662e-08 0.0000000000000000e+00  -2.1945971857361692e-07 1.8947135734861702e-08 0.0000000000000000e+00  -2.4107476516577224e-07 2.5448591830985075e-08 0.0000000000000000e+00  -2.6746353724703907e-07 3.1616382409922124e-08 0.0000000000000000e+00  -2.9843633754399676e-07 3.7250384002791009e-08 0.0000000000000000e+00  -3.3355974967285515e-07 4.2042995715965918e-08 0.0000000000000000e+00  -3.7208146713912681e-07 4.5611300012777327e-08 0.0000000000000000e+00  -4.1288805971615057e-07 4.7556553128439133e-08 0.0000000000000000e+00  -4.5452263671654472e-07 4.7538356417682573e-08 0.0000000000000000e+00  -4.9525989043058404e-07 4.5343759052168274e-08 0.0000000000000000e+00  -5.3324864031607773e-07 4.0930741842519702e-08 0.0000000000000000e+00  -5.6665090056088615e-07 3.4436170043995625e-08 0.0000000000000000e+00  -5.9383267815609789e-07 2.6143113715331398e-08 0.0000000000000000e+00  -6.1339163442546387e-07 1.6432800570366958e-08 0.0000000000000000e+00  -6.2438851586437167e-07 5.7041354431371582e-09 0.0000000000000000e+00  -6.2598938081400251e-07 -5.6417621509698184e-09 0.0000000000000000e+00  -6.1817495162718708e-07 -1.7332739408503681e-08 0.0000000000000000e+00  -6.0012854724344964e-07 -2.9026270925119440e-08 0.0000000000000000e+00  -5.7338536496877164e-07 -4.0793250240188561e-08 0.0000000000000000e+00  -5.3512137781256083e-07 -5.1998857892649138e-08 0.0000000000000000e+00  -4.9188556404435154e-07 -6.3720929288819374e-08 0.0000000000000000e+00  -4.3116999090560716e-07 -7.3285301260627330e-08 0.0000000000000000e+00  -3.7993684204050954e-07 -8.6106817605631908e-08 0.0000000000000000e+00  -2.8452188511763405e-07 -8.9715088267064612e-08 0.0000000000000000e+00  -2.5632636097552975e-07 -1.0952636323242408e-07 0.0000000000000000e+00  -7.1894590594162608e-08 -8.9102573817985369e-08 0.0000000000000000e+00  -1.8556658333659886e-07 -1.4300877879302350e-07 0.0000000000000000e+00  3.0552126814499647e-07 -2.5953781384241364e-08 0.0000000000000000e+00  -4.2791821073049344e-07 -2.3591656380346529e-07 0.0000000000000000e+00  1.1432760470099661e-06 2.3518640235537717e-07 0.0000000000000000e+00  -2.3950051850242235e-06 -7.6339977937294258e-07 0.0000000000000000e+00  2.9253850781134896e-06 1.2981260203744682e-06 0.0000000000000000e+00  0.0000000000000000e+00 0.0000000000000000e+00 0.0000000000000000e+00  0.0000000000000000e+00 0.0000000000000000e+00 0.0000000000000000e+00  -1.3356413737422073e-06 5.8511634321676802e-07 0.0000000000000000e+00  7.5845549203488816e-07 -5.3099190254018794e-08 0.0000000000000000e+00  -8.7694188748441659e-08 1.1162765134400162e-07 0.0000000000000000e+00  -2.3884096454910710e-07 1.2359746074985641e-09 0.0000000000000000e+00  -2.5316282546142337e-07 -4.6638809157475065e-08 0.0000000000000000e+00  -3.1637653299363487e-07 -6.9211469997001246e-08 0.0000000000000000e+00  -3.2172468090551775e-07 -7.6063688891593503e-08 0.0000000000000000e+00  -3.1742580179280057e-07 -7.4003855102958902e-08 0.0000000000000000e+00  -3.0880312577801175e-07 -6.6546660386814726e-08 0.0000000000000000e+00  -2.9700553079943835e-07 -5.6124544881822491e-08 0.0000000000000000e+00  -2.8661398376229079e-07 -4.4025021630624508e-08 0.0000000000000000e+00  -2.7886450139915598e-07 -3.1069012557319875e-08 0.0000000000000000e+00  -2.7475663006050781e-07 -1.7769485876834353e-08 0.0000000000000000e+00  -2.7494900792638083e-07 -4.4081890832825892e-09 0.0000000000000000e+00  -2.7977330296855119e-07 8.8841774242146047e-09 0.0000000000000000e+00  -2.8944128311115505e-07 2.2060601409279408e-08 0.0000000000000000e+00  -3.0407206240699913e-07 3.5086690827353582e-08 0.0000000000000000e+00  -3.2370999832588536e-07 4.7861448505234935e-08 0.0000000000000000e+00  -3.4829766507579544e-07 6.0140883064332756e-08 0.0000000000000000e+00  -3.7760448858181075e-07 7.1483306563076299e-08 0.0000000000000000e+00  -4.1113094674354695e-07 8.1239555843041429e-08 0.0000000000000000e+00  -4.4801717657984533e-07 8.8605824009850798e-08 0.0000000000000000e+00  -4.8699048035047168e-07 9.2738602800102696e-08 0.0000000000000000e+00  -5.2638994724053598e-07 9.2907273910311229e-08 0.0000000000000000e+00  -5.6426819112010351e-07 8.8641738426339710e-08 0.0000000000000000e+00  -5.9857823347688368e-07 7.9829405404543471e-08 0.0000000000000000e+00  -6.2735480856451589e-07 6.6735579976050469e-08 0.0000000000000000e+00  -6.4894190848313851e-07 4.9940583924462479e-08 0.0000000000000000e+00  -6.6202001601320286e-07 3.0232855154194321e-08 0.0000000000000000e+00  -6.6584164086693632e-07 8.4592458729437862e-09 0.0000000000000000e+00  -6.5981278760407026e-07 -1.4548301900296492e-08 0.0000000000000000e+00  -6.4423163434026657e-07 -3.8142782166631183e-08 0.0000000000000000e+00  -6.1854379001431593e-07 -6.1675947798585874e-08 0.0000000000000000e+00  -5.8467575633924763e-07 -8.4965930653964948e-08 0.0000000000000000e+00  -5.3998719565269865e-07 -1.0718315412643697e-07 0.0000000000000000e+00  -4.9160079283367756e-07 -1.2913644665544688e-07 0.0000000000000000e+00  -4.2704950539060634e-07 -1.4804233626921783e-07 0.0000000000000000e+00  -3.7431063717452495e-07 -1.6858857906443254e-07 0.0000000000000000e+00  -2.7969160294698974e-07 -1.7876412525801481e-07 0.0000000000000000e+00  -2.5599229328911708e-07 -2.0109078212488690e-07 0.0000000000000000e+00  -8.1040545801074205e-08 -1.8354428304627205e-07 0.0000000000000000e+00  -2.0823646877913115e-07 -2.2847405906424741e-07 0.0000000000000000e+00  2.5350817073993625e-07 -1.1655353186309623e-07 0.0000000000000000e+00  -4.9860963580929624e-07 -2.9409378614436420e-07 0.0000000000000000e+00  9.6086679654451494e-07 1.3604631978884313e-07 0.0000000000000000e+00  -2.4242474842073506e-06 -6.4829068449190547e-07 0.0000000000000000e+00  2.7834032908793576e-06 1.3043539602069619e-06 0.0000000000000000e+00  0.0000000000000000e+00 0.0000000000000000e+00 0.0000000000000000e+00  0.0000000000000000e+00 0.0000000000000000e+00 0.0000000000000000e+00  -2.4505867532518894e-06 1.0507696189567371e-06 0.0000000000000000e+00  1.6893128930355258e-06 -1.6023558671340417e-07 0.0000000000000000e+00  -3.7574333600625675e-07 2.6376846930026068e-07 0.0000000000000000e+00  3.3906500218128149e-08 2.0174733410445628e-08 0.0000000000000000e+00  -1.0911545866719438e-07 -2.2606914770694847e-09 0.0000000000000000e+00  -1.6916987446676179e-07 -5.1840406485505246e-08 0.0000000000000000e+00  -1.8961403106742798e-07 -7.0279541346937556e-08 0.0000000000000000e+00  -2.2109114114008044e-07 -7.5583318713439054e-08 0.0000000000000000e+00  -2.3745717693195907e-07 -7.1556540597287568e-08 0.0000000000000000e+00  -2.4892595275003457e-07 -6.1627429193847018e-08 0.0000000000000000e+00  -2.5767930464492393e-07 -4.8171798300505754e-08 0.0000000000000000e+00  -2.6487411443815062e-07 -3.2682970559026465e-08 0.0000000000000000e+00  -2.7231142323609821e-07 -1.6134392792502558e-08 0.0000000000000000e+00  -2.8090733495884618e-07 8.9229487418834942e-10 0.0000000000000000e+00  -2.9136771066345438e-07 1.8083574010850596e-08 0.0000000000000000e+00  -3.0420614513779594e-07 3.5293967842690664e-08 0.0000000000000000e+00  -3.1978728068120869e-07 5.2439422814530790e-08 0.0000000000000000e+00  -3.3838335314028653e-07 6.9374453039985539e-08 0.0000000000000000e+00  -3.6015420998243707e-07 8.5766680950026443e-08 0.0000000000000000e+00  -3.8508205479696800e-07 1.0099627223452698e-07 0.0000000000000000e+00  -4.1286532824829851e-07 1.1412225883524257e-07 0.0000000000000000e+00  -4.4280827426697443e-07 1.2395156122986380e-07 0.0000000000000000e+00  -4.7375586125639999e-07 1.2921645567900027e-07 0.0000000000000000e+00  -5.0412831046664799e-07 1.2882164668266390e-07 0.0000000000000000e+00  -5.3206130765335398e-07 1.2208601046188700e-07 0.0000000000000000e+00  -5.5565188746903866e-07 1.0889783509977668e-07 0.0000000000000000e+00  -5.7319320252922606e-07 8.9737174320309851e-08 0.0000000000000000e+00  -5.8343300797280038e-07 6.5561550277324990e-08 0.0000000000000000e+00  -5.8558524314516270e-07 3.7617978918142282e-08 0.0000000000000000e+00  -5.7953505982666830e-07 7.2097871488468603e-09 0.0000000000000000e+00  -5.6534293079916150e-07 -2.4435521823602806e-08 0.0000000000000000e+00  -5.4397545850022073e-07 -5.6368749522730445e-08 0.0000000000000000e+00  -5.1544956363135049e-07 -8.7724215821845520e-08 0.0000000000000000e+00  -4.8230585184140057e-07 -1.1817607780393562e-07 0.0000000000000000e+00  -4.4229439136991720e-07 -1.4677199959892057e-07 0.0000000000000000e+00  -4.0321465174859322e-07 -1.7420032873796976e-07 0.0000000000000000e+00  -3.5272185050465073e-07 -1.9753601789433292e-07 0.0000000000000000e+00  -3.1978371779846980e-07 -2.2115532452479955e-07 0.0000000000000000e+00  -2.5037166528416890e-07 -2.3310552808337764e-07 0.0000000000000000e+00  -2.5840396806804584e-07 -2.5472193482756280e-07 0.0000000000000000e+00  -1.2180354756599744e-07 -2.3664599529860471e-07 0.0000000000000000e+00  -2.9017688685829933e-07 -2.7524235787252186e-07 0.0000000000000000e+00  1.1583420320982685e-07 -1.7066159700385463e-07 0.0000000000000000e+00  -6.6615231076787918e-07 -3.3153112954939660e-07 0.0000000000000000e+00  7.0946898074052699e-07 4.4076757247254824e-08 0.0000000000000000e+00  -2.6066780829004891e-06 -6.2954316961392087e-07 0.0000000000000000e+00  2.4144730891417688e-06 1.0721473626678325e-06 0.0000000000000000e+00  0.0000000000000000e+00 0.0000000000000000e+00 0.0000000000000000e+00  0.0000000000000000e+00 0.0000000000000000e+00 0.0000000000000000e+00  -2.7191607687284612e-06 1.0955543764085791e-06 0.0000000000000000e+00  2.2873334729133535e-06 -1.9634206605418676e-07 0.0000000000000000e+00  -6.9556187225373807e-07 3.3567616519526376e-07 0.0000000000000000e+00  2.8924503451769453e-07 2.7051979686670658e-08 0.0000000000000000e+00  -1.3697629551116425e-07 6.5808455791585547e-08 0.0000000000000000e+00  -8.0916734988109233e-08 -1.2613860894320328e-08 0.0000000000000000e+00  -1.3031284228004346e-07 -3.2725750060111484e-08 0.0000000000000000e+00  -1.6814934010918027e-07 -4.9487927596904018e-08 0.0000000000000000e+00  -1.9141837720304705e-07 -5.2353928348969405e-08 0.0000000000000000e+00  -2.1414935261891011e-07 -4.7488574563521245e-08 0.0000000000000000e+00  -2.3150675867341984e-07 -3.7016857293712516e-08 0.0000000000000000e+00  -2.4639170948433162e-07 -2.2880571317477402e-08 0.0000000000000000e+00  -2.5999745345516514e-07 -6.4872908301099398e-09 0.0000000000000000e+00  -2.7309377086495572e-07 1.1254443442239839e-08 0.0000000000000000e+00  -2.8647063599044534e-07 2.9773106479572997e-08 0.0000000000000000e+00  -3.0064672011243801e-07 4.8759633626671741e-08 0.0000000000000000e+00  -3.1605333954038639e-07 6.8034051995721573e-08 0.0000000000000000e+00  -3.3306138591180226e-07 8.7386306277351433e-08 0.0000000000000000e+00  -3.5196942323745681e-07 1.0639297490111962e-07 0.0000000000000000e+00  -3.7293314351642880e-07 1.2425075523041922e-07 0.0000000000000000e+00  -3.9582420788287697e-07 1.3969811772573220e-07 0.0000000000000000e+00  -4.2007141398031545e-07 1.5109378148827623e-07 0.0000000000000000e+00  -4.4455691771838452e-07 1.5667472713540876e-07 0.0000000000000000e+00  -4.6765432616149912e-07 1.5493527393614832e-07 0.0000000000000000e+00  -4.8742754913425776e-07 1.4499929653765880e-07 0.0000000000000000e+00  -5.0197602053491260e-07 1.2684647842150841e-07 0.0000000000000000e+00  -5.0975862397418065e-07 1.0131686201976106e-07 0.0000000000000000e+00  -5.0990129788807903e-07 6.9903604094841215e-08 0.0000000000000000e+00  -5.0217270217311290e-07 3.4440130329616464e-08 0.0000000000000000e+00  -4.8713762298453759e-07 -3.2425144643906245e-09 0.0000000000000000e+00  -4.6552200258597809e-07 -4.1512745921315557e-08 0.0000000000000000e+00  -4.3895569798203567e-07 -7.9154083678014450e-08 0.0000000000000000e+00  -4.0789423343283488e-07 -1.1514867908658066e-07 0.0000000000000000e+00  -3.7541404006790863e-07 -1.4908020308577075e-07 0.0000000000000000e+00  -3.3925208810965755e-07 -1.7994812761768520e-07 0.0000000000000000e+00  -3.0789411504295594e-07 -2.0832404684896941e-07 0.0000000000000000e+00  -2.6803436173561454e-07 -2.3128028471700496e-07 0.0000000000000000e+00  -2.5040693741376377e-07 -2.5281116174117932e-07 0.0000000000000000e+00  -1.9726195566851658e-07 -2.6152428274552663e-07 0.0000000000000000e+00  -2.2814590067009848e-07 -2.7737131455121469e-07 0.0000000000000000e+00  -1.0881989171412651e-07 -2.5507611700903464e-07 0.0000000000000000e+00  -3.0656418890636359e-07 -2.8445304192876258e-07 0.0000000000000000e+00  9.3255525407261285e-08 -1.8588522357295250e-07 0.0000000000000000e+00  -7.2064737725817622e-07 -3.3099509191077410e-07 0.0000000000000000e+00  6.7735221690943371e-07 -2.5385758309153469e-09 0.0000000000000000e+00  -2.6441773741234389e-06 -5.9651386483028523e-07 0.0000000000000000e+00  2.4066592094174965e-06 9.0691233100461241e-07 0.0000000000000000e+00  0.0000000000000000e+00 0.0000000000000000e+00 0.0000000000000000e+00  0.0000000000000000e+00 0.0000000000000000e+00 0.0000000000000000e+00  -2.6729383181261462e-06 9.9703819978044125e-07 0.0000000000000000e+00  2.5259660454198260e-06 -1.7983703634954394e-07 0.0000000000000000e+00  -8.4441517363121456e-07 3.3209365234631452e-07 0.0000000000000000e+00  4.9262570435629183e-07 3.4730485768496615e-08 0.0000000000000000e+00  -1.9226474646664738e-07 1.1606270438312053e-07 0.0000000000000000e+00  2.6085150293876817e-08 2.1104435395832474e-08 0.0000000000000000e+00  -8.6840432274971651e-08 9.2785947371418155e-09 0.0000000000000000e+00  -1.0259253887879962e-07 -1.7582772896504889e-08 0.0000000000000000e+00  -1.3475758906278252e-07 -2.4406025668649193e-08 0.0000000000000000e+00  -1.6363960597700091e-07 -2.4760225669069211e-08 0.0000000000000000e+00  -1.8683351382598725e-07 -1.7712595528224676e-08 0.0000000000000000e+00  -2.0820085657673558e-07 -5.9841057934214705e-09 0.0000000000000000e+00  -2.2714962244688619e-07 8.9818947070967764e-09 0.0000000000000000e+00  -2.4466481540769926e-07 2.6039981451632820e-08 0.0000000000000000e+00  -2.6133624968220566e-07 4.4425238411800220e-08 0.0000000000000000e+00  -2.7760120877019455e-07 6.3711178573274457e-08 0.0000000000000000e+00  -2.9390149270554617e-07 8.3666358948829318e-08 0.0000000000000000e+00  -3.1065794984484779e-07 1.0407975233676208e-07 0.0000000000000000e+00  -3.2829907552080718e-07 1.2450745817279034e-07 0.0000000000000000e+00  -3.4716932379699330e-07 1.4401150666637203e-07 0.0000000000000000e+00  -3.6733306167193068e-07 1.6099948552034363e-07 0.0000000000000000e+00  -3.8832962474890857e-07 1.7329774834667847e-07 0.0000000000000000e+00  -4.0899442558964676e-07 1.7852205746689354e-07 0.0000000000000000e+00  -4.2749451356018840e-07 1.7465987172484478e-07 0.0000000000000000e+00  -4.4162556918930963e-07 1.6064295351483365e-07 0.0000000000000000e+00  -4.4932519326990016e-07 1.3666833952861752e-07 0.0000000000000000e+00  -4.4914538487716419e-07 1.0414834059029151e-07 0.0000000000000000e+00  -4.4062177052191698e-07 6.5335931512839908e-08 0.0000000000000000e+00  -4.2418093740043799e-07 2.2815493472576736e-08 0.0000000000000000e+00  -4.0117779046707692e-07 -2.0989503473071668e-08 0.0000000000000000e+00  -3.7307971106203364e-07 -6.4077935668055272e-08 0.0000000000000000e+00  -3.4217266893545603e-07 -1.0507489323742442e-07 0.0000000000000000e+00  -3.0929959042432999e-07 -1.4295497101901644e-07 0.0000000000000000e+00  -2.7790170179787782e-07 -1.7737017216453712e-07