<?xml version="1.0"?>
<VTKFile type="UnstructuredGrid"  version="0.1"  >
<UnstructuredGrid>
<Piece  NumberOfPoints="1617" NumberOfCells="3072">
<Points>
<DataArray  type="Float64"  NumberOfComponents="3"  format="ascii">0 0 0  0.03125 0 0  0.0625 0 0  0.09375 0 0  0.125 0 0  0.15625 0 0  0.1875 0 0  0.21875 0 0  0.25 0 0  0.28125 0 0  0.3125 0 0  0.34375 0 0  0.375 0 0  0.40625 0 0  0.4375 0 0  0.46875 0 0  0.5 0 0  0.53125 0 0  0.5625 0 0  0.59375 0 0  0.625 0 0  0.65625 0 0  0.6875 0 0  0.71875 0 0  0.75 0 0  0.78125 0 0  0.8125 0 0  0.84375 0 0  0.875 0 0  0.90625 0 0  0.9375 0 0  0.96875 0 0  1 0 0  1.03125 0 0  1.0625 0 0  1.09375 0 0  1.125 0 0  1.15625 0 0  1.1875 0 0  1.21875 0 0  1.25 0 0  1.28125 0 0  1.3125 0 0  1.34375 0 0  1.375 0 0  1.40625 0 0  1.4375 0 0  1.46875 0 0  1.5 0 0  0 0.03125 0  0.03125 0.03125 0  0.0625 0.03125 0  0.09375 0.03125 0  0.125 0.03125 0  0.15625 0.03125 0  0.1875 0.03125 0  0.21875 0.03125 0  0.25 0.03125 0  0.28125 0.03125 0  0.3125 0.03125 0  0.34375 0.03125 0  0.375 0.03125 0  0.40625 0.03125 0  0.4375 0.03125 0  0.46875 0.03125 0  0.5 0.03125 0  0.53125 0.03125 0  0.5625 0.03125 0  0.59375 0.03125 0  0.625 0.03125 0  0.65625 0.03125 0  0.6875 0.03125 0  0.71875 0.03125 0  0.75 0.03125 0  0.78125 0.03125 0  0.8125 0.03125 0  0.84375 0.03125 0  0.875 0.03125 0  0.90625 0.03125 0  0.9375 0.03125 0  0.96875 0.03125 0  1 0.03125 0  1.03125 0.03125 0  1.0625 0.03125 0  1.09375 0.03125 0  1.125 0.03125 0  1.15625 0.03125 0  1.1875 0.03125 0  1.21875 0.03125 0  1.25 0.03125 0  1.28125 0.03125 0  1.3125 0.03125 0  1.34375 0.03125 0  1.375 0.03125 0  1.40625 0.03125 0  1.4375 0.03125 0  1.46875 0.03125 0  1.5 0.03125 0  0 0.0625 0  0.03125 0.0625 0  0.0625 0.0625 0  0.09375 0.0625 0  0.125 0.0625 0  0.15625 0.0625 0  0.1875 0.0625 0  0.21875 0.0625 0  0.25 0.0625 0  0.28125 0.0625 0  0.3125 0.0625 0  0.34375 0.0625 0  0.375 0.0625 0  0.40625 0.0625 0  0.4375 0.0625 0  0.46875 0.0625 0  0.5 0.0625 0  0.53125 0.0625 0  0.5625 0.0625 0  0.59375 0.0625 0  0.625 0.0625 0  0.65625 0.0625 0  0.6875 0.0625 0  0.71875 0.0625 0  0.75 0.0625 0  0.78125 0.0625 0  0.8125 0.0625 0  0.84375 0.0625 0  0.875 0.0625 0  0.90625 0.0625 0  0.9375 0.0625 0  0.96875 0.0625 0  1 0.0625 0  1.03125 0.0625 0  1.0625 0.0625 0  1.09375 0.0625 0  1.125 0.0625 0  1.15625 0.0625 0  1.1875 0.0625 0  1.21875 0.0625 0  1.25 0.0625 0  1.28125 0.0625 0  1.3125 0.0625 0  1.34375 0.0625 0  1.375 0.0625 0  1.40625 0.0625 0  1.4375 0.0625 0  1.46875 0.0625 0  1.5 0.0625 0  0 0.09375 0  0.03125 0.09375 0  0.0625 0.09375 0  0.09375 0.09375 0  0.125 0.09375 0  0.15625 0.09375 0  0.1875 0.09375 0  0.21875 0.09375 0  0.25 0.09375 0  0.28125 0.09375 0  0.3125 0.09375 0  0.34375 0.09375 0  0.375 0.09375 0  0.40625 0.09375 0  0.4375 0.09375 0  0.46875 0.09375 0  0.5 0.09375 0  0.53125 0.09375 0  0.5625 0.09375 0  0.59375 0.09375 0  0.625 0.09375 0  0.65625 0.09375 0  0.6875 0.09375 0  0.71875 0.09375 0  0.75 0.09375 0  0.78125 0.09375 0  0.8125 0.09375 0  0.84375 0.09375 0  0.875 0.09375 0  0.90625 0.09375 0  0.9375 0.09375 0  0.96875 0.09375 0  1 0.09375 0  1.03125 0.09375 0  1.0625 0.09375 0  1.09375 0.09375 0  1.125 0.09375 0  1.15625 0.09375 0  1.1875 0.09375 0  1.21875 0.09375 0  1.25 0.09375 0  1.28125 0.09375 0  1.3125 0.09375 0  1.34375 0.09375 0  1.375 0.09375 0  1.40625 0.09375 0  1.4375 0.09375 0  1.46875 0.09375 0  1.5 0.09375 0  0 0.125 0  0.03125 0.125 0  0.0625 0.125 0  0.09375 0.125 0  0.125 0.125 0  0.15625 0.125 0  0.1875 0.125 0  0.21875 0.125 0  0.25 0.125 0  0.28125 0.125 0  0.3125 0.125 0  0.34375 0.125 0  0.375 0.125 0  0.40625 0.125 0  0.4375 0.125 0  0.46875 0.125 0  0.5 0.125 0  0.53125 0.125 0  0.5625 0.125 0  0.59375 0.125 0  0.625 0.125 0  0.65625 0.125 0  0.6875 0.125 0  0.71875 0.125 0  0.75 0.125 0  0.78125 0.125 0  0.8125 0.125 0  0.84375 0.125 0  0.875 0.125 0  0.90625 0.125 0  0.9375 0.125 0  0.96875 0.125 0  1 0.125 0  1.03125 0.125 0  1.0625 0.125 0  1.09375 0.125 0  1.125 0.125 0  1.15625 0.125 0  1.1875 0.125 0  1.21875 0.125 0  1.25 0.125 0  1.28125 0.125 0  1.3125 0.125 0  1.34375 0.125 0  1.375 0.125 0  1.40625 0.125 0  1.4375 0.125 0  1.46875 0.125 0  1.5 0.125 0  0 0.15625 0  0.03125 0.15625 0  0.0625 0.15625 0  0.09375 0.15625 0  0.125 0.15625 0  0.15625 0.15625 0  0.1875 0.15625 0  0.21875 0.15625 0  0.25 0.15625 0  0.28125 0.15625 0  0.3125 0.15625 0  0.34375 0.15625 0  0.375 0.15625 0  0.40625 0.15625 0  0.4375 0.15625 0  0.46875 0.15625 0  0.5 0.15625 0  0.53125 0.15625 0  0.5625 0.15625 0  0.59375 0.15625 0  0.625 0.15625 0  0.65625 0.15625 0  0.6875 0.15625 0  0.71875 0.15625 0  0.75 0.15625 0  0.78125 0.15625 0  0.8125 0.15625 0  0.84375 0.15625 0  0.875 0.15625 0  0.90625 0.15625 0  0.9375 0.15625 0  0.96875 0.15625 0  1 0.15625 0  1.03125 0.15625 0  1.0625 0.15625 0  1.09375 0.15625 0  1.125 0.15625 0  1.15625 0.15625 0  1.1875 0.15625 0  1.21875 0.15625 0  1.25 0.15625 0  1.28125 0.15625 0  1.3125 0.15625 0  1.34375 0.15625 0  1.375 0.15625 0  1.40625 0.15625 0  1.4375 0.15625 0  1.46875 0.15625 0  1.5 0.15625 0  0 0.1875 0  0.03125 0.1875 0  0.0625 0.1875 0  0.09375 0.1875 0  0.125 0.1875 0  0.15625 0.1875 0  0.1875 0.1875 0  0.21875 0.1875 0  0.25 0.1875 0  0.28125 0.1875 0  0.3125 0.1875 0  0.34375 0.1875 0  0.375 0.1875 0  0.40625 0.1875 0  0.4375 0.1875 0  0.46875 0.1875 0  0.5 0.1875 0  0.53125 0.1875 0  0.5625 0.1875 0  0.59375 0.1875 0  0.625 0.1875 0  0.65625 0.1875 0  0.6875 0.1875 0  0.71875 0.1875 0  0.75 0.1875 0  0.78125 0.1875 0  0.8125 0.1875 0  0.84375 0.1875 0  0.875 0.1875 0  0.90625 0.1875 0  0.9375 0.1875 0  0.96875 0.1875 0  1 0.1875 0  1.03125 0.1875 0  1.0625 0.1875 0  1.09375 0.1875 0  1.125 0.1875 0  1.15625 0.1875 0  1.1875 0.1875 0  1.21875 0.1875 0  1.25 0.1875 0  1.28125 0.1875 0  1.3125 0.1875 0  1.34375 0.1875 0  1.375 0.1875 0  1.40625 0.1875 0  1.4375 0.1875 0  1.46875 0.1875 0  1.5 0.1875 0  0 0.21875 0  0.03125 0.21875 0  0.0625 0.21875 0  0.09375 0.21875 0  0.125 0.21875 0  0.15625 0.21875 0  0.1875 0.21875 0  0.21875 0.21875 0  0.25 0.21875 0  0.28125 0.21875 0  0.3125 0.21875 0  0.34375 0.21875 0  0.375 0.21875 0  0.40625 0.21875 0  0.4375 0.21875 0  0.46875 0.21875 0  0.5 0.21875 0  0.53125 0.21875 0  0.5625 0.21875 0  0.59375 0.21875 0  0.625 0.21875 0  0.65625 0.21875 0  0.6875 0.21875 0  0.71875 0.21875 0  0.75 0.21875 0  0.78125 0.21875 0  0.8125 0.21875 0  0.84375 0.21875 0  0.875 0.21875 0  0.90625 0.21875 0  0.9375 0.21875 0  0.96875 0.21875 0  1 0.21875 0  1.03125 0.21875 0  1.0625 0.21875 0  1.09375 0.21875 0  1.125 0.21875 0  1.15625 0.21875 0  1.1875 0.21875 0  1.21875 0.21875 0  1.25 0.21875 0  1.28125 0.21875 0  1.3125 0.21875 0  1.34375 0.21875 0  1.375 0.21875 0  1.40625 0.21875 0  1.4375 0.21875 0  1.46875 0.21875 0  1.5 0.21875 0  0 0.25 0  0.03125 0.25 0  0.0625 0.25 0  0.09375 0.25 0  0.125 0.25 0  0.15625 0.25 0  0.1875 0.25 0  0.21875 0.25 0  0.25 0.25 0  0.28125 0.25 0  0.3125 0.25 0  0.34375 0.25 0  0.375 0.25 0  0.40625 0.25 0  0.4375 0.25 0  0.46875 0.25 0  0.5 0.25 0  0.53125 0.25 0  0.5625 0.25 0  0.59375 0.25 0  0.625 0.25 0  0.65625 0.25 0  0.6875 0.25 0  0.71875 0.25 0  0.75 0.25 0  0.78125 0.25 0  0.8125 0.25 0  0.84375 0.25 0  0.875 0.25 0  0.90625 0.25 0  0.9375 0.25 0  0.96875 0.25 0  1 0.25 0  1.03125 0.25 0  1.0625 0.25 0  1.09375 0.25 0  1.125 0.25 0  1.15625 0.25 0  1.1875 0.25 0  1.21875 0.25 0  1.25 0.25 0  1.28125 0.25 0  1.3125 0.25 0  1.34375 0.25 0  1.375 0.25 0  1.40625 0.25 0  1.4375 0.25 0  1.46875 0.25 0  1.5 0.25 0  0 0.28125 0  0.03125 0.28125 0  0.0625 0.28125 0  0.09375 0.28125 0  0.125 0.28125 0  0.15625 0.28125 0  0.1875 0.28125 0  0.21875 0.28125 0  0.25 0.28125 0  0.28125 0.28125 0  0.3125 0.28125 0  0.34375 0.28125 0  0.375 0.28125 0  0.40625 0.28125 0  0.4375 0.28125 0  0.46875 0.28125 0  0.5 0.28125 0  0.53125 0.28125 0  0.5625 0.28125 0  0.59375 0.28125 0  0.625 0.28125 0  0.65625 0.28125 0  0.6875 0.28125 0  0.71875 0.28125 0  0.75 0.28125 0  0.78125 0.28125 0  0.8125 0.28125 0  0.84375 0.28125 0  0.875 0.28125 0  0.90625 0.28125 0  0.9375 0.28125 0  0.96875 0.28125 0  1 0.28125 0  1.03125 0.28125 0  1.0625 0.28125 0  1.09375 0.28125 0  1.125 0.28125 0  1.15625 0.28125 0  1.1875 0.28125 0  1.21875 0.28125 0  1.25 0.28125 0  1.28125 0.28125 0  1.3125 0.28125 0  1.34375 0.28125 0  1.375 0.28125 0  1.40625 0.28125 0  1.4375 0.28125 0  1.46875 0.28125 0  1.5 0.28125 0  0 0.3125 0  0.03125 0.3125 0  0.0625 0.3125 0  0.09375 0.3125 0  0.125 0.3125 0  0.15625 0.3125 0  0.1875 0.3125 0  0.21875 0.3125 0  0.25 0.3125 0  0.28125 0.3125 0  0.3125 0.3125 0  0.34375 0.3125 0  0.375 0.3125 0  0.40625 0.3125 0  0.4375 0.3125 0  0.46875 0.3125 0  0.5 0.3125 0  0.53125 0.3125 0  0.5625 0.3125 0  0.59375 0.3125 0  0.625 0.3125 0  0.65625 0.3125 0  0.6875 0.3125 0  0.71875 0.3125 0  0.75 0.3125 0  0.78125 0.3125 0  0.8125 0.3125 0  0.84375 0.3125 0  0.875 0.3125 0  0.90625 0.3125 0  0.9375 0.3125 0  0.96875 0.3125 0  1 0.3125 0  1.03125 0.3125 0  1.0625 0.3125 0  1.09375 0.3125 0  1.125 0.3125 0  1.15625 0.3125 0  1.1875 0.3125 0  1.21875 0.3125 0  1.25 0.3125 0  1.28125 0.3125 0  1.3125 0.3125 0  1.34375 0.3125 0  1.375 0.3125 0  1.40625 0.3125 0  1.4375 0.3125 0  1.46875 0.3125 0  1.5 0.3125 0  0 0.34375 0  0.03125 0.34375 0  0.0625 0.34375 0  0.09375 0.34375 0  0.125 0.34375 0  0.15625 0.34375 0  0.1875 0.34375 0  0.21875 0.34375 0  0.25 0.34375 0  0.28125 0.34375 0  0.3125 0.34375 0  0.34375 0.34375 0  0.375 0.34375 0  0.40625 0.34375 0  0.4375 0.34375 0  0.46875 0.34375 0  0.5 0.34375 0  0.53125 0.34375 0  0.5625 0.34375 0  0.59375 0.34375 0  0.625 0.34375 0  0.65625 0.34375 0  0.6875 0.34375 0  0.71875 0.34375 0  0.75 0.34375 0  0.78125 0.34375 0  0.8125 0.34375 0  0.84375 0.34375 0  0.875 0.34375 0  0.90625 0.34375 0  0.9375 0.34375 0  0.96875 0.34375 0  1 0.34375 0  1.03125 0.34375 0  1.0625 0.34375 0  1.09375 0.34375 0  1.125 0.34375 0  1.15625 0.34375 0  1.1875 0.34375 0  1.21875 0.34375 0  1.25 0.34375 0  1.28125 0.34375 0  1.3125 0.34375 0  1.34375 0.34375 0  1.375 0.34375 0  1
[...]
<PointData  Vectors="f_17"> 
<DataArray  type="Float64"  Name="f_17"  NumberOfComponents="3" format="ascii">0.0000000000000000e+00 0.0000000000000000e+00 0.0000000000000000e+00  0.0000000000000000e+00 0.0000000000000000e+00 0.0000000000000000e+00  0.0000000000000000e+00 0.0000000000000000e+00 0.0000000000000000e+00  0.0000000000000000e+00 0.0000000000000000e+00 0.0000000000000000e+00  0.0000000000000000e+00 0.0000000000000000e+00 0.0000000000000000e+00  0.0000000000000000e+00 0.0000000000000000e+00 0.0000000000000000e+00  0.0000000000000000e+00 0.0000000000000000e+00 0.0000000000000000e+00  0.0000000000000000e+00 0.0000000000000000e+00 0.0000000000000000e+00  0.0000000000000000e+00 0.0000000000000000e+00 0.0000000000000000e+00  0.0000000000000000e+00 0.0000000000000000e+00 0.0000000000000000e+00  0.0000000000000000e+00 0.0000000000000000e+00 0.0000000000000000e+00  0.0000000000000000e+00 0.0000000000000000e+00 0.0000000000000000e+00  0.0000000000000000e+00 0.0000000000000000e+00 0.0000000000000000e+00  0.0000000000000000e+00 0.0000000000000000e+00 0.0000000000000000e+00  0.0000000000000000e+00 0.0000000000000000e+00 0.0000000000000000e+00  0.0000000000000000e+00 0.0000000000000000e+00 0.0000000000000000e+00  0.0000000000000000e+00 0.0000000000000000e+00 0.0000000000000000e+00  0.0000000000000000e+00 0.0000000000000000e+00 0.0000000000000000e+00  0.0000000000000000e+00 0.0000000000000000e+00 0.0000000000000000e+00  0.0000000000000000e+00 0.0000000000000000e+00 0.0000000000000000e+00  0.0000000000000000e+00 0.0000000000000000e+00 0.0000000000000000e+00  0.0000000000000000e+00 0.0000000000000000e+00 0.0000000000000000e+00  0.0000000000000000e+00 0.0000000000000000e+00 0.0000000000000000e+00  0.0000000000000000e+00 0.0000000000000000e+00 0.0000000000000000e+00  0.0000000000000000e+00 0.0000000000000000e+00 0.0000000000000000e+00  0.0000000000000000e+00 0.0000000000000000e+00 0.0000000000000000e+00  0.0000000000000000e+00 0.0000000000000000e+00 0.0000000000000000e+00  0.0000000000000000e+00 0.0000000000000000e+00 0.0000000000000000e+00  0.0000000000000000e+00 0.0000000000000000e+00 0.0000000000000000e+00  0.0000000000000000e+00 0.0000000000000000e+00 0.0000000000000000e+00  0.0000000000000000e+00 0.0000000000000000e+00 0.0000000000000000e+00  0.0000000000000000e+00 0.0000000000000000e+00 0.0000000000000000e+00  0.0000000000000000e+00 0.0000000000000000e+00 0.0000000000000000e+00  0.0000000000000000e+00 0.0000000000000000e+00 0.0000000000000000e+00  0.0000000000000000e+00 0.0000000000000000e+00 0.0000000000000000e+00  0.0000000000000000e+00 0.0000000000000000e+00 0.0000000000000000e+00  0.0000000000000000e+00 0.0000000000000000e+00 0.0000000000000000e+00  0.0000000000000000e+00 0.0000000000000000e+00 0.0000000000000000e+00  0.0000000000000000e+00 0.0000000000000000e+00 0.0000000000000000e+00  0.0000000000000000e+00 0.0000000000000000e+00 0.0000000000000000e+00  0.0000000000000000e+00 0.0000000000000000e+00 0.0000000000000000e+00  0.0000000000000000e+00 0.0000000000000000e+00 0.0000000000000000e+00  0.0000000000000000e+00 0.0000000000000000e+00 0.0000000000000000e+00  0.0000000000000000e+00 0.0000000000000000e+00 0.0000000000000000e+00  0.0000000000000000e+00 0.0000000000000000e+00 0.0000000000000000e+00  0.0000000000000000e+00 0.0000000000000000e+00 0.0000000000000000e+00  0.0000000000000000e+00 0.0000000000000000e+00 0.0000000000000000e+00  0.0000000000000000e+00 0.0000000000000000e+00 0.0000000000000000e+00  0.0000000000000000e+00 0.0000000000000000e+00 0.0000000000000000e+00  0.0000000000000000e+00 0.0000000000000000e+00 0.0000000000000000e+00  2.1797784956060738e-07 1.3850650679087232e-08 0.0000000000000000e+00  -1.3441548494254696e-07 1.0040930123264620e-07 0.0000000000000000e+00  -1.3356730155841987e-07 -2.2909801808227712e-08 0.0000000000000000e+00  -3.3857356330173696e-07 -6.4519372233293291e-08 0.0000000000000000e+00  -3.2238930221821149e-07 -9.1981728575589502e-08 0.0000000000000000e+00  -3.0728981682816012e-07 -9.6823706654875397e-08 0.0000000000000000e+00  -2.9373562008175713e-07 -8.9187504604476293e-08 0.0000000000000000e+00  -2.6834694402189334e-07 -7.8992904752446837e-08 0.0000000000000000e+00  -2.4372831242294260e-07 -6.7845381209867304e-08 0.0000000000000000e+00  -2.2036232103236333e-07 -5.6927857815505384e-08 0.0000000000000000e+00  -1.9962736101524379e-07 -4.6628647798348303e-08 0.0000000000000000e+00  -1.8275582721917042e-07 -3.6984475611255614e-08 0.0000000000000000e+00  -1.7015938850063373e-07 -2.7982106944266479e-08 0.0000000000000000e+00  -1.6214824191110835e-07 -1.9556258811293626e-08 0.0000000000000000e+00  -1.5889502508969299e-07 -1.1619325835226298e-08 0.0000000000000000e+00  -1.6049742373039986e-07 -4.0834269291146752e-09 0.0000000000000000e+00  -1.6702049628050536e-07 3.1155298675940719e-09 0.0000000000000000e+00  -1.7848551360905728e-07 9.9881088829839599e-09 0.0000000000000000e+00  -1.9483495275322161e-07 1.6462656348453697e-08 0.0000000000000000e+00  -2.1587000339587638e-07 2.2366991027410960e-08 0.0000000000000000e+00  -2.4117350642859507e-07 2.7430418486683174e-08 0.0000000000000000e+00  -2.7004078870138156e-07 3.1312417705988938e-08 0.0000000000000000e+00  -3.0143982596767789e-07 3.3656193037427712e-08 0.0000000000000000e+00  -3.3402577815271026e-07 3.4155633479557176e-08 0.0000000000000000e+00  -3.6620678216078530e-07 3.2617742221169420e-08 0.0000000000000000e+00  -3.9627227675688210e-07 2.9001815598697926e-08 0.0000000000000000e+00  -4.2251561798442766e-07 2.3426621402747041e-08 0.0000000000000000e+00  -4.4340954161488832e-07 1.6140563908889820e-08 0.0000000000000000e+00  -4.5762263629282519e-07 7.4791671908719204e-09 0.0000000000000000e+00  -4.6424519785461695e-07 -2.2087161984344497e-09 0.0000000000000000e+00  -4.6243189061397773e-07 -1.2570105890007245e-08 0.0000000000000000e+00  -4.5211548930572584e-07 -2.3374429442524365e-08 0.0000000000000000e+00  -4.3240225527208240e-07 -3.4311832715843428e-08 0.0000000000000000e+00  -4.0472589711367324e-07 -4.5476896257308093e-08 0.0000000000000000e+00  -3.6614063339504970e-07 -5.6251472779271910e-08 0.0000000000000000e+00  -3.2304286545214828e-07 -6.7725607451534653e-08 0.0000000000000000e+00  -2.6273704839128610e-07 -7.7234968058154681e-08 0.0000000000000000e+00  -2.1192821262105559e-07 -9.0198258649018450e-08 0.0000000000000000e+00  -1.1665379478399177e-07 -9.4128878916645307e-08 0.0000000000000000e+00  -8.7963438148087649e-08 -1.1436990362681575e-07 0.0000000000000000e+00  9.7883203405590291e-08 -9.4251861799649595e-08 0.0000000000000000e+00  -1.3520128321527796e-08 -1.4785286927468510e-07 0.0000000000000000e+00  4.7928347319312636e-07 -2.8818149244886977e-08 0.0000000000000000e+00  -2.5096521001187685e-07 -2.3210471052754248e-07 0.0000000000000000e+00  1.3141645476524461e-06 2.5146049263985418e-07 0.0000000000000000e+00  -2.4226762176245849e-06 -7.4144290939164487e-07 0.0000000000000000e+00  2.7101607900990476e-06 1.3748415567886721e-06 0.0000000000000000e+00  0.0000000000000000e+00 0.0000000000000000e+00 0.0000000000000000e+00  0.0000000000000000e+00 0.0000000000000000e+00 0.0000000000000000e+00  -1.1317656271589036e-06 7.1659085828470792e-07 0.0000000000000000e+00  8.5346108446402840e-07 -1.1957132800587135e-08 0.0000000000000000e+00  -1.4807435937701573e-07 1.1007601278260745e-07 0.0000000000000000e+00  -3.2652075655438389e-07 -2.4729861738420304e-08 0.0000000000000000e+00  -3.4091010663047538e-07 -8.3066033410826079e-08 0.0000000000000000e+00  -3.9906459973592672e-07 -1.0889195909864886e-07 0.0000000000000000e+00  -3.9445725664714905e-07 -1.1569702940530507e-07 0.0000000000000000e+00  -3.7768614942248452e-07 -1.1230334597566250e-07 0.0000000000000000e+00  -3.5564991183694026e-07 -1.0319881619710351e-07 0.0000000000000000e+00  -3.3024818369509992e-07 -9.1206458214230286e-08 0.0000000000000000e+00  -3.0638655561968240e-07 -7.7730466127095763e-08 0.0000000000000000e+00  -2.8540649065252198e-07 -6.3599298010163239e-08 0.0000000000000000e+00  -2.6831584919473069e-07 -4.9301234861354098e-08 0.0000000000000000e+00  -2.5574665890118350e-07 -3.5093384424675915e-08 0.0000000000000000e+00  -2.4799541660325717e-07 -2.1090262039419001e-08 0.0000000000000000e+00  -2.4523865184485657e-07 -7.3285953023678027e-09 0.0000000000000000e+00  -2.4756292003019940e-07 6.1683944752269012e-09 0.0000000000000000e+00  -2.5498571786786785e-07 1.9319433294702768e-08 0.0000000000000000e+00  -2.6743417107270115e-07 3.1915356601524225e-08 0.0000000000000000e+00  -2.8468223151804151e-07 4.3568092447558855e-08 0.0000000000000000e+00  -3.0626481096932256e-07 5.3699995416532342e-08 0.0000000000000000e+00  -3.3139492101613382e-07 6.1590114727578777e-08 0.0000000000000000e+00  -3.5891486292655313e-07 6.6477271981746653e-08 0.0000000000000000e+00  -3.8731673490198036e-07 6.7697838394675898e-08 0.0000000000000000e+00  -4.1483125456773359e-07 6.4819484566367602e-08 0.0000000000000000e+00  -4.3959474288455193e-07 5.7729257135655271e-08 0.0000000000000000e+00  -4.5980788771320582e-07 4.6652593879723006e-08 0.0000000000000000e+00  -4.7394329829896845e-07 3.2096760472531698e-08 0.0000000000000000e+00  -4.8075960384594241e-07 1.4755847211356999e-08 0.0000000000000000e+00  -4.7953240550031721e-07 -4.6248146520240908e-09 0.0000000000000000e+00  -4.6963946942001293e-07 -2.5308939678182920e-08 0.0000000000000000e+00  -4.5130825776902837e-07 -4.6729727982536333e-08 0.0000000000000000e+00  -4.2388337370227048e-07 -6.8298471922023006e-08 0.0000000000000000e+00  -3.8916921233320348e-07 -8.9871133985229050e-08 0.0000000000000000e+00  -3.4439129129661897e-07 -1.1063576913883096e-07 0.0000000000000000e+00  -2.9652255261917283e-07 -1.3140072184575135e-07 0.0000000000000000e+00  -2.3293875366279600e-07 -1.4936173485378457e-07 0.0000000000000000e+00  -1.8144094156555949e-07 -1.6915481575583018e-07 0.0000000000000000e+00  -8.8207901849934184e-08 -1.7865087606354600e-07 0.0000000000000000e+00  -6.5995170555515280e-08 -2.0012384952642386e-07 0.0000000000000000e+00  1.0711880445922585e-07 -1.8100807041983912e-07 0.0000000000000000e+00  -2.3207922383202946e-08 -2.2269045385928117e-07 0.0000000000000000e+00  4.3175143210996049e-07 -1.0390185686207640e-07 0.0000000000000000e+00  -3.3105698968356214e-07 -2.6742401642542918e-07 0.0000000000000000e+00  1.0925366128578821e-06 1.8307262709916510e-07 0.0000000000000000e+00  -2.5039433149119615e-06 -5.8006686159816633e-07 0.0000000000000000e+00  2.5435731015998038e-06 1.4433169325481483e-06 0.0000000000000000e+00  0.0000000000000000e+00 0.0000000000000000e+00 0.0000000000000000e+00  0.0000000000000000e+00 0.0000000000000000e+00 0.0000000000000000e+00  -2.1938842496823001e-06 1.1931224969427950e-06 0.0000000000000000e+00  1.8481106738155407e-06 -9.5201521992889642e-08 0.0000000000000000e+00  -3.8540166644792559e-07 2.8391640201587005e-07 0.0000000000000000e+00  -1.9780776250262017e-09 6.1942785552681390e-09 0.0000000000000000e+00  -1.5052628525398038e-07 -3.6117944437638288e-08 0.0000000000000000e+00  -2.1369554223229531e-07 -9.5306756247180026e-08 0.0000000000000000e+00  -2.3123498645355911e-07 -1.1758221801864751e-07 0.0000000000000000e+00  -2.5600886785498600e-07 -1.2380713577164488e-07 0.0000000000000000e+00  -2.6362210039222514e-07 -1.1934905805051653e-07 0.0000000000000000e+00  -2.6522971471753137e-07 -1.0845173160466834e-07 0.0000000000000000e+00  -2.6355842075898133e-07 -9.3880428274876348e-08 0.0000000000000000e+00  -2.6005555677439626e-07 -7.7298594685992654e-08 0.0000000000000000e+00  -2.5666714612918301e-07 -5.9746481024702587e-08 0.0000000000000000e+00  -2.5438053034995918e-07 -4.1830403902713476e-08 0.0000000000000000e+00  -2.5393622842820055e-07 -2.3873603617492268e-08 0.0000000000000000e+00  -2.5586358032638856e-07 -6.0243329115792573e-09 0.0000000000000000e+00  -2.6053313945704423e-07 1.1639700519356590e-08 0.0000000000000000e+00  -2.6822029283091444e-07 2.8995458224018066e-08 0.0000000000000000e+00  -2.7909379835637509e-07 4.5757078557657504e-08 0.0000000000000000e+00  -2.9316161482013604e-07 6.1380671476276935e-08 0.0000000000000000e+00  -3.1017748511936915e-07 7.5029767411535781e-08 0.0000000000000000e+00  -3.2954175777784994e-07 8.5634543099811685e-08 0.0000000000000000e+00  -3.5024154215463563e-07 9.2050504222493541e-08 0.0000000000000000e+00  -3.7088013679273672e-07 9.3281481876099384e-08 0.0000000000000000e+00  -3.8980026123830944e-07 8.8698763429027779e-08 0.0000000000000000e+00  -4.0530396312819615e-07 7.8182322107653409e-08 0.0000000000000000e+00  -4.1585918028529802e-07 6.2142133112293812e-08 0.0000000000000000e+00  -4.2033548091949649e-07 4.1415680287855461e-08 0.0000000000000000e+00  -4.1800388519305127e-07 1.7100521528178457e-08 0.0000000000000000e+00  -4.0874224871842592e-07 -9.6555796126875582e-09 0.0000000000000000e+00  -3.9254993423092821e-07 -3.7766119956844201e-08 0.0000000000000000e+00  -3.7029435432975864e-07 -6.6393662606629707e-08 0.0000000000000000e+00  -3.4187331498086630e-07 -9.4747165651395545e-08 0.0000000000000000e+00  -3.0970232628660312e-07 -1.2253591569373652e-07 0.0000000000000000e+00  -2.7141441714501543e-07 -1.4880340906461738e-07 0.0000000000000000e+00  -2.3470232834343949e-07 -1.7419346677900265e-07 0.0000000000000000e+00  -1.8714337469705444e-07 -1.9568848290589110e-07 0.0000000000000000e+00  -1.5765672337444944e-07 -2.1750348241368484e-07 0.0000000000000000e+00  -9.2278844778488307e-08 -2.2741058482829102e-07 0.0000000000000000e+00  -1.0514931635195547e-07 -2.4627970178818124e-07 0.0000000000000000e+00  2.5233985547207144e-08 -2.2394712052135635e-07 0.0000000000000000e+00  -1.5198406243586527e-07 -2.5554021274308882e-07 0.0000000000000000e+00  2.4008478397454397e-07 -1.3919891944860538e-07 0.0000000000000000e+00  -5.6035765828450778e-07 -2.8061927795594948e-07 0.0000000000000000e+00  7.7430741133590355e-07 1.1970522175978141e-07 0.0000000000000000e+00  -2.7448231337772344e-06 -5.3029770138925415e-07 0.0000000000000000e+00  2.1469703746946571e-06 1.2327648491078427e-06 0.0000000000000000e+00  0.0000000000000000e+00 0.0000000000000000e+00 0.0000000000000000e+00  0.0000000000000000e+00 0.0000000000000000e+00 0.0000000000000000e+00  -2.4450077932668049e-06 1.2317267705981013e-06 0.0000000000000000e+00  2.4721334241875387e-06 -1.2186755223006525e-07 0.0000000000000000e+00  -6.7551414482009062e-07 3.7134280362545876e-07 0.0000000000000000e+00  2.8981245242383731e-07 2.6991504435430384e-08 0.0000000000000000e+00  -1.4203652570487637e-07 4.0155446100469597e-08 0.0000000000000000e+00  -9.2024391004685197e-08 -5.3425491967168065e-08 0.0000000000000000e+00  -1.4262966586189306e-07 -8.1706815106289621e-08 0.0000000000000000e+00  -1.7827931773667473e-07 -1.0248272216037014e-07 0.0000000000000000e+00  -1.9711105702877270e-07 -1.0696686870785480e-07 0.0000000000000000e+00  -2.1385073514291023e-07 -1.0243493262244801e-07 0.0000000000000000e+00  -2.2419213590718773e-07 -9.1649678251903125e-08 0.0000000000000000e+00  -2.3137903763283915e-07 -7.6904871787737473e-08 0.0000000000000000e+00  -2.3682012915626264e-07 -5.9796943434729742e-08 0.0000000000000000e+00  -2.4142543721505841e-07 -4.1336417029602310e-08 0.0000000000000000e+00  -2.4607919145660165e-07 -2.2151810962005862e-08 0.0000000000000000e+00  -2.5136467592567706e-07 -2.5832263803891368e-09 0.0000000000000000e+00  -2.5775785017051661e-07 1.7179933788597846e-08 0.0000000000000000e+00  -2.6566253687747552e-07 3.6944453472283276e-08 0.0000000000000000e+00  -2.7540853278200990e-07 5.6338820092272654e-08 0.0000000000000000e+00  -2.8719455512784843e-07 7.4654192284539751e-08 0.0000000000000000e+00  -3.0096357517087700e-07 9.0765920381155384e-08 0.0000000000000000e+00  -3.1625984871921655e-07 1.0319880147289957e-07 0.0000000000000000e+00  -3.3213372198592247e-07 1.1035744185074532e-07 0.0000000000000000e+00  -3.4717398609493462e-07 1.1086869528575784e-07 0.0000000000000000e+00  -3.5968376691521381e-07 1.0391955077992860e-07 0.0000000000000000e+00  -3.6799018702614853e-07 8.9463428097398905e-08 0.0000000000000000e+00  -3.7073131764388310e-07 6.8225958808723511e-08 0.0000000000000000e+00  -3.6713747674199508e-07 4.1518852101196305e-08 0.0000000000000000e+00  -3.5699842810776980e-07 1.0960230109910103e-08 0.0000000000000000e+00  -3.4082559689917929e-07 -2.1832802236268946e-08 0.0000000000000000e+00  -3.1923795890816564e-07 -5.5412079146267855e-08 0.0000000000000000e+00  -2.9372959419466573e-07 -8.8694950699469397e-08 0.0000000000000000e+00  -2.6461607187750944e-07 -1.2073870769851703e-07 0.0000000000000000e+00  -2.3484719839269817e-07 -1.5114132944991036e-07 0.0000000000000000e+00  -2.0206271793684759e-07 -1.7885600013752128e-07 0.0000000000000000e+00  -1.7468311754288250e-07 -2.0434501577752770e-07 0.0000000000000000e+00  -1.3938834328573243e-07 -2.2449810707422965e-07 0.0000000000000000e+00  -1.2694528073204101e-07 -2.4303070506183758e-07 0.0000000000000000e+00  -7.9759175096543114e-08 -2.4813328741686552e-07 0.0000000000000000e+00  -1.1766412789457320e-07 -2.5914265248076332e-07 0.0000000000000000e+00  -6.9797171375497368e-09 -2.2987392114060820e-07 0.0000000000000000e+00  -2.1600822251411448e-07 -2.4894728708948725e-07 0.0000000000000000e+00  1.6810085186263637e-07 -1.3515542119824974e-07 0.0000000000000000e+00  -6.6384410585963734e-07 -2.5827104297815700e-07 0.0000000000000000e+00  6.9853878372827134e-07 9.5242578396025602e-08 0.0000000000000000e+00  -2.8129770979161752e-06 -4.7799217045698475e-07 0.0000000000000000e+00  2.1269116850200559e-06 1.0734382876946577e-06 0.0000000000000000e+00  0.0000000000000000e+00 0.0000000000000000e+00 0.0000000000000000e+00  0.0000000000000000e+00 0.0000000000000000e+00 0.0000000000000000e+00  -2.3931387223779127e-06 1.1200042850917255e-06 0.0000000000000000e+00  2.7207347871396543e-06 -1.0628188995670494e-07 0.0000000000000000e+00  -8.0933769304048962e-07 3.7453393405718365e-07 0.0000000000000000e+00  5.1391198566201356e-07 4.4682060075273960e-08 0.0000000000000000e+00  -1.7397829160969148e-07 9.9055114948436065e-08 0.0000000000000000e+00  3.8999078397249859e-08 -1.4228038838670847e-08 0.0000000000000000e+00  -7.6548955407706632e-08 -3.7599773089464933e-08 0.0000000000000000e+00  -9.2750938919169550e-08 -7.1376985762086001e-08 0.0000000000000000e+00  -1.2357620533601622e-07 -8.2051289513789368e-08 0.0000000000000000e+00  -1.4962798090926266e-07 -8.4365966441204360e-08 0.0000000000000000e+00  -1.6884778248968407e-07 -7.8150643726124260e-08 0.0000000000000000e+00  -1.8536048466799434e-07 -6.6607310681404821e-08 0.0000000000000000e+00  -1.9877540228013739e-07 -5.1473220396597559e-08 0.0000000000000000e+00  -2.1023436479760476e-07 -3.4072654957567861e-08 0.0000000000000000e+00  -2.2045024996152205e-07 -1.5280572097430744e-08 0.0000000000000000e+00  -2.2995611019103174e-07 4.4096815233752263e-09 0.0000000000000000e+00  -2.3926665004104539e-07 2.4733431323763017e-08 0.0000000000000000e+00  -2.4885814145260787e-07 4.5482745006533475e-08 0.0000000000000000e+00  -2.5920585632651771e-07 6.6263619411217355e-08 0.0000000000000000e+00  -2.7070711520440783e-07 8.6246325486058307e-08 0.0000000000000000e+00  -2.8350630650857607e-07 1.0400789785726889e-07 0.0000000000000000e+00  -2.9727306550442306e-07 1.1758925718378504e-07 0.0000000000000000e+00  -3.1103828591952217e-07 1.2482642760751696e-07 0.0000000000000000e+00  -3.2322394795986290e-07 1.2387781911089117e-07 0.0000000000000000e+00  -3.3190765511158963e-07 1.1374539218009978e-07 0.0000000000000000e+00  -3.3528430315712791e-07 9.4568291003632673e-08 0.0000000000000000e+00  -3.3208734678747797e-07 6.7579875029406479e-08 0.0000000000000000e+00  -3.2192722841136608e-07 3.4769980969153982e-08 0.0000000000000000e+00  -3.0519732431052428e-07 -1.5723875890913566e-09 0.0000000000000000e+00  -2.8313429283741513e-07 -3.9300832411983705e-08 0.0000000000000000e+00  -2.5703791338629126e-07 -7.6635207761378905e-08 0.0000000000000000e+00  -2.2901280590431291e-07 -1.1234428650556093e-07 0.0000000000000000e+00  -1.9973687334974986e-07 -1.4546205053118466e-07 0.0000000000000000e+00  -1.7252064162522909e-07 -1.7561