<?xml version="1.0"?>
<VTKFile type="UnstructuredGrid"  version="0.1"  >
<UnstructuredGrid>
<Piece  NumberOfPoints="1617" NumberOfCells="3072">
<Points>
<DataArray  type="Float64"  NumberOfComponents="3"  format="ascii">0 0 0  0.03125 0 0  0.0625 0 0  0.09375 0 0  0.125 0 0  0.15625 0 0  0.1875 0 0  0.21875 0 0  0.25 0 0  0.28125 0 0  0.3125 0 0  0.34375 0 0  0.375 0 0  0.40625 0 0  0.4375 0 0  0.46875 0 0  0.5 0 0  0.53125 0 0  0.5625 0 0  0.59375 0 0  0.625 0 0  0.65625 0 0  0.6875 0 0  0.71875 0 0  0.75 0 0  0.78125 0 0  0.8125 0 0  0.84375 0 0  0.875 0 0  0.90625 0 0  0.9375 0 0  0.96875 0 0  1 0 0  1.03125 0 0  1.0625 0 0  1.09375 0 0  1.125 0 0  1.15625 0 0  1.1875 0 0  1.21875 0 0  1.25 0 0  1.28125 0 0  1.3125 0 0  1.34375 0 0  1.375 0 0  1.40625 0 0  1.4375 0 0  1.46875 0 0  1.5 0 0  0 0.03125 0  0.03125 0.03125 0  0.0625 0.03125 0  0.09375 0.03125 0  0.125 0.03125 0  0.15625 0.03125 0  0.1875 0.03125 0  0.21875 0.03125 0  0.25 0.03125 0  0.28125 0.03125 0  0.3125 0.03125 0  0.34375 0.03125 0  0.375 0.03125 0  0.40625 0.03125 0  0.4375 0.03125 0  0.46875 0.03125 0  0.5 0.03125 0  0.53125 0.03125 0  0.5625 0.03125 0  0.59375 0.03125 0  0.625 0.03125 0  0.65625 0.03125 0  0.6875 0.03125 0  0.71875 0.03125 0  0.75 0.03125 0  0.78125 0.03125 0  0.8125 0.03125 0  0.84375 0.03125 0  0.875 0.03125 0  0.90625 0.03125 0  0.9375 0.03125 0  0.96875 0.03125 0  1 0.03125 0  1.03125 0.03125 0  1.0625 0.03125 0  1.09375 0.03125 0  1.125 0.03125 0  1.15625 0.03125 0  1.1875 0.03125 0  1.21875 0.03125 0  1.25 0.03125 0  1.28125 0.03125 0  1.3125 0.03125 0  1.34375 0.03125 0  1.375 0.03125 0  1.40625 0.03125 0  1.4375 0.03125 0  1.46875 0.03125 0  1.5 0.03125 0  0 0.0625 0  0.03125 0.0625 0  0.0625 0.0625 0  0.09375 0.0625 0  0.125 0.0625 0  0.15625 0.0625 0  0.1875 0.0625 0  0.21875 0.0625 0  0.25 0.0625 0  0.28125 0.0625 0  0.3125 0.0625 0  0.34375 0.0625 0  0.375 0.0625 0  0.40625 0.0625 0  0.4375 0.0625 0  0.46875 0.0625 0  0.5 0.0625 0  0.53125 0.0625 0  0.5625 0.0625 0  0.59375 0.0625 0  0.625 0.0625 0  0.65625 0.0625 0  0.6875 0.0625 0  0.71875 0.0625 0  0.75 0.0625 0  0.78125 0.0625 0  0.8125 0.0625 0  0.84375 0.0625 0  0.875 0.0625 0  0.90625 0.0625 0  0.9375 0.0625 0  0.96875 0.0625 0  1 0.0625 0  1.03125 0.0625 0  1.0625 0.0625 0  1.09375 0.0625 0  1.125 0.0625 0  1.15625 0.0625 0  1.1875 0.0625 0  1.21875 0.0625 0  1.25 0.0625 0  1.28125 0.0625 0  1.3125 0.0625 0  1.34375 0.0625 0  1.375 0.0625 0  1.40625 0.0625 0  1.4375 0.0625 0  1.46875 0.0625 0  1.5 0.0625 0  0 0.09375 0  0.03125 0.09375 0  0.0625 0.09375 0  0.09375 0.09375 0  0.125 0.09375 0  0.15625 0.09375 0  0.1875 0.09375 0  0.21875 0.09375 0  0.25 0.09375 0  0.28125 0.09375 0  0.3125 0.09375 0  0.34375 0.09375 0  0.375 0.09375 0  0.40625 0.09375 0  0.4375 0.09375 0  0.46875 0.09375 0  0.5 0.09375 0  0.53125 0.09375 0  0.5625 0.09375 0  0.59375 0.09375 0  0.625 0.09375 0  0.65625 0.09375 0  0.6875 0.09375 0  0.71875 0.09375 0  0.75 0.09375 0  0.78125 0.09375 0  0.8125 0.09375 0  0.84375 0.09375 0  0.875 0.09375 0  0.90625 0.09375 0  0.9375 0.09375 0  0.96875 0.09375 0  1 0.09375 0  1.03125 0.09375 0  1.0625 0.09375 0  1.09375 0.09375 0  1.125 0.09375 0  1.15625 0.09375 0  1.1875 0.09375 0  1.21875 0.09375 0  1.25 0.09375 0  1.28125 0.09375 0  1.3125 0.09375 0  1.34375 0.09375 0  1.375 0.09375 0  1.40625 0.09375 0  1.4375 0.09375 0  1.46875 0.09375 0  1.5 0.09375 0  0 0.125 0  0.03125 0.125 0  0.0625 0.125 0  0.09375 0.125 0  0.125 0.125 0  0.15625 0.125 0  0.1875 0.125 0  0.21875 0.125 0  0.25 0.125 0  0.28125 0.125 0  0.3125 0.125 0  0.34375 0.125 0  0.375 0.125 0  0.40625 0.125 0  0.4375 0.125 0  0.46875 0.125 0  0.5 0.125 0  0.53125 0.125 0  0.5625 0.125 0  0.59375 0.125 0  0.625 0.125 0  0.65625 0.125 0  0.6875 0.125 0  0.71875 0.125 0  0.75 0.125 0  0.78125 0.125 0  0.8125 0.125 0  0.84375 0.125 0  0.875 0.125 0  0.90625 0.125 0  0.9375 0.125 0  0.96875 0.125 0  1 0.125 0  1.03125 0.125 0  1.0625 0.125 0  1.09375 0.125 0  1.125 0.125 0  1.15625 0.125 0  1.1875 0.125 0  1.21875 0.125 0  1.25 0.125 0  1.28125 0.125 0  1.3125 0.125 0  1.34375 0.125 0  1.375 0.125 0  1.40625 0.125 0  1.4375 0.125 0  1.46875 0.125 0  1.5 0.125 0  0 0.15625 0  0.03125 0.15625 0  0.0625 0.15625 0  0.09375 0.15625 0  0.125 0.15625 0  0.15625 0.15625 0  0.1875 0.15625 0  0.21875 0.15625 0  0.25 0.15625 0  0.28125 0.15625 0  0.3125 0.15625 0  0.34375 0.15625 0  0.375 0.15625 0  0.40625 0.15625 0  0.4375 0.15625 0  0.46875 0.15625 0  0.5 0.15625 0  0.53125 0.15625 0  0.5625 0.15625 0  0.59375 0.15625 0  0.625 0.15625 0  0.65625 0.15625 0  0.6875 0.15625 0  0.71875 0.15625 0  0.75 0.15625 0  0.78125 0.15625 0  0.8125 0.15625 0  0.84375 0.15625 0  0.875 0.15625 0  0.90625 0.15625 0  0.9375 0.15625 0  0.96875 0.15625 0  1 0.15625 0  1.03125 0.15625 0  1.0625 0.15625 0  1.09375 0.15625 0  1.125 0.15625 0  1.15625 0.15625 0  1.1875 0.15625 0  1.21875 0.15625 0  1.25 0.15625 0  1.28125 0.15625 0  1.3125 0.15625 0  1.34375 0.15625 0  1.375 0.15625 0  1.40625 0.15625 0  1.4375 0.15625 0  1.46875 0.15625 0  1.5 0.15625 0  0 0.1875 0  0.03125 0.1875 0  0.0625 0.1875 0  0.09375 0.1875 0  0.125 0.1875 0  0.15625 0.1875 0  0.1875 0.1875 0  0.21875 0.1875 0  0.25 0.1875 0  0.28125 0.1875 0  0.3125 0.1875 0  0.34375 0.1875 0  0.375 0.1875 0  0.40625 0.1875 0  0.4375 0.1875 0  0.46875 0.1875 0  0.5 0.1875 0  0.53125 0.1875 0  0.5625 0.1875 0  0.59375 0.1875 0  0.625 0.1875 0  0.65625 0.1875 0  0.6875 0.1875 0  0.71875 0.1875 0  0.75 0.1875 0  0.78125 0.1875 0  0.8125 0.1875 0  0.84375 0.1875 0  0.875 0.1875 0  0.90625 0.1875 0  0.9375 0.1875 0  0.96875 0.1875 0  1 0.1875 0  1.03125 0.1875 0  1.0625 0.1875 0  1.09375 0.1875 0  1.125 0.1875 0  1.15625 0.1875 0  1.1875 0.1875 0  1.21875 0.1875 0  1.25 0.1875 0  1.28125 0.1875 0  1.3125 0.1875 0  1.34375 0.1875 0  1.375 0.1875 0  1.40625 0.1875 0  1.4375 0.1875 0  1.46875 0.1875 0  1.5 0.1875 0  0 0.21875 0  0.03125 0.21875 0  0.0625 0.21875 0  0.09375 0.21875 0  0.125 0.21875 0  0.15625 0.21875 0  0.1875 0.21875 0  0.21875 0.21875 0  0.25 0.21875 0  0.28125 0.21875 0  0.3125 0.21875 0  0.34375 0.21875 0  0.375 0.21875 0  0.40625 0.21875 0  0.4375 0.21875 0  0.46875 0.21875 0  0.5 0.21875 0  0.53125 0.21875 0  0.5625 0.21875 0  0.59375 0.21875 0  0.625 0.21875 0  0.65625 0.21875 0  0.6875 0.21875 0  0.71875 0.21875 0  0.75 0.21875 0  0.78125 0.21875 0  0.8125 0.21875 0  0.84375 0.21875 0  0.875 0.21875 0  0.90625 0.21875 0  0.9375 0.21875 0  0.96875 0.21875 0  1 0.21875 0  1.03125 0.21875 0  1.0625 0.21875 0  1.09375 0.21875 0  1.125 0.21875 0  1.15625 0.21875 0  1.1875 0.21875 0  1.21875 0.21875 0  1.25 0.21875 0  1.28125 0.21875 0  1.3125 0.21875 0  1.34375 0.21875 0  1.375 0.21875 0  1.40625 0.21875 0  1.4375 0.21875 0  1.46875 0.21875 0  1.5 0.21875 0  0 0.25 0  0.03125 0.25 0  0.0625 0.25 0  0.09375 0.25 0  0.125 0.25 0  0.15625 0.25 0  0.1875 0.25 0  0.21875 0.25 0  0.25 0.25 0  0.28125 0.25 0  0.3125 0.25 0  0.34375 0.25 0  0.375 0.25 0  0.40625 0.25 0  0.4375 0.25 0  0.46875 0.25 0  0.5 0.25 0  0.53125 0.25 0  0.5625 0.25 0  0.59375 0.25 0  0.625 0.25 0  0.65625 0.25 0  0.6875 0.25 0  0.71875 0.25 0  0.75 0.25 0  0.78125 0.25 0  0.8125 0.25 0  0.84375 0.25 0  0.875 0.25 0  0.90625 0.25 0  0.9375 0.25 0  0.96875 0.25 0  1 0.25 0  1.03125 0.25 0  1.0625 0.25 0  1.09375 0.25 0  1.125 0.25 0  1.15625 0.25 0  1.1875 0.25 0  1.21875 0.25 0  1.25 0.25 0  1.28125 0.25 0  1.3125 0.25 0  1.34375 0.25 0  1.375 0.25 0  1.40625 0.25 0  1.4375 0.25 0  1.46875 0.25 0  1.5 0.25 0  0 0.28125 0  0.03125 0.28125 0  0.0625 0.28125 0  0.09375 0.28125 0  0.125 0.28125 0  0.15625 0.28125 0  0.1875 0.28125 0  0.21875 0.28125 0  0.25 0.28125 0  0.28125 0.28125 0  0.3125 0.28125 0  0.34375 0.28125 0  0.375 0.28125 0  0.40625 0.28125 0  0.4375 0.28125 0  0.46875 0.28125 0  0.5 0.28125 0  0.53125 0.28125 0  0.5625 0.28125 0  0.59375 0.28125 0  0.625 0.28125 0  0.65625 0.28125 0  0.6875 0.28125 0  0.71875 0.28125 0  0.75 0.28125 0  0.78125 0.28125 0  0.8125 0.28125 0  0.84375 0.28125 0  0.875 0.28125 0  0.90625 0.28125 0  0.9375 0.28125 0  0.96875 0.28125 0  1 0.28125 0  1.03125 0.28125 0  1.0625 0.28125 0  1.09375 0.28125 0  1.125 0.28125 0  1.15625 0.28125 0  1.1875 0.28125 0  1.21875 0.28125 0  1.25 0.28125 0  1.28125 0.28125 0  1.3125 0.28125 0  1.34375 0.28125 0  1.375 0.28125 0  1.40625 0.28125 0  1.4375 0.28125 0  1.46875 0.28125 0  1.5 0.28125 0  0 0.3125 0  0.03125 0.3125 0  0.0625 0.3125 0  0.09375 0.3125 0  0.125 0.3125 0  0.15625 0.3125 0  0.1875 0.3125 0  0.21875 0.3125 0  0.25 0.3125 0  0.28125 0.3125 0  0.3125 0.3125 0  0.34375 0.3125 0  0.375 0.3125 0  0.40625 0.3125 0  0.4375 0.3125 0  0.46875 0.3125 0  0.5 0.3125 0  0.53125 0.3125 0  0.5625 0.3125 0  0.59375 0.3125 0  0.625 0.3125 0  0.65625 0.3125 0  0.6875 0.3125 0  0.71875 0.3125 0  0.75 0.3125 0  0.78125 0.3125 0  0.8125 0.3125 0  0.84375 0.3125 0  0.875 0.3125 0  0.90625 0.3125 0  0.9375 0.3125 0  0.96875 0.3125 0  1 0.3125 0  1.03125 0.3125 0  1.0625 0.3125 0  1.09375 0.3125 0  1.125 0.3125 0  1.15625 0.3125 0  1.1875 0.3125 0  1.21875 0.3125 0  1.25 0.3125 0  1.28125 0.3125 0  1.3125 0.3125 0  1.34375 0.3125 0  1.375 0.3125 0  1.40625 0.3125 0  1.4375 0.3125 0  1.46875 0.3125 0  1.5 0.3125 0  0 0.34375 0  0.03125 0.34375 0  0.0625 0.34375 0  0.09375 0.34375 0  0.125 0.34375 0  0.15625 0.34375 0  0.1875 0.34375 0  0.21875 0.34375 0  0.25 0.34375 0  0.28125 0.34375 0  0.3125 0.34375 0  0.34375 0.34375 0  0.375 0.34375 0  0.40625 0.34375 0  0.4375 0.34375 0  0.46875 0.34375 0  0.5 0.34375 0  0.53125 0.34375 0  0.5625 0.34375 0  0.59375 0.34375 0  0.625 0.34375 0  0.65625 0.34375 0  0.6875 0.34375 0  0.71875 0.34375 0  0.75 0.34375 0  0.78125 0.34375 0  0.8125 0.34375 0  0.84375 0.34375 0  0.875 0.34375 0  0.90625 0.34375 0  0.9375 0.34375 0  0.96875 0.34375 0  1 0.34375 0  1.03125 0.34375 0  1.0625 0.34375 0  1.09375 0.34375 0  1.125 0.34375 0  1.15625 0.34375 0  1.1875 0.34375 0  1.21875 0.34375 0  1.25 0.34375 0  1.28125 0.34375 0  1.3125 0.34375 0  1.34375 0.34375 0  1.375 0.34375 0  1
[...]
<PointData  Vectors="f_17"> 
<DataArray  type="Float64"  Name="f_17"  NumberOfComponents="3" format="ascii">0.0000000000000000e+00 0.0000000000000000e+00 0.0000000000000000e+00  0.0000000000000000e+00 0.0000000000000000e+00 0.0000000000000000e+00  0.0000000000000000e+00 0.0000000000000000e+00 0.0000000000000000e+00  0.0000000000000000e+00 0.0000000000000000e+00 0.0000000000000000e+00  0.0000000000000000e+00 0.0000000000000000e+00 0.0000000000000000e+00  0.0000000000000000e+00 0.0000000000000000e+00 0.0000000000000000e+00  0.0000000000000000e+00 0.0000000000000000e+00 0.0000000000000000e+00  0.0000000000000000e+00 0.0000000000000000e+00 0.0000000000000000e+00  0.0000000000000000e+00 0.0000000000000000e+00 0.0000000000000000e+00  0.0000000000000000e+00 0.0000000000000000e+00 0.0000000000000000e+00  0.0000000000000000e+00 0.0000000000000000e+00 0.0000000000000000e+00  0.0000000000000000e+00 0.0000000000000000e+00 0.0000000000000000e+00  0.0000000000000000e+00 0.0000000000000000e+00 0.0000000000000000e+00  0.0000000000000000e+00 0.0000000000000000e+00 0.0000000000000000e+00  0.0000000000000000e+00 0.0000000000000000e+00 0.0000000000000000e+00  0.0000000000000000e+00 0.0000000000000000e+00 0.0000000000000000e+00  0.0000000000000000e+00 0.0000000000000000e+00 0.0000000000000000e+00  0.0000000000000000e+00 0.0000000000000000e+00 0.0000000000000000e+00  0.0000000000000000e+00 0.0000000000000000e+00 0.0000000000000000e+00  0.0000000000000000e+00 0.0000000000000000e+00 0.0000000000000000e+00  0.0000000000000000e+00 0.0000000000000000e+00 0.0000000000000000e+00  0.0000000000000000e+00 0.0000000000000000e+00 0.0000000000000000e+00  0.0000000000000000e+00 0.0000000000000000e+00 0.0000000000000000e+00  0.0000000000000000e+00 0.0000000000000000e+00 0.0000000000000000e+00  0.0000000000000000e+00 0.0000000000000000e+00 0.0000000000000000e+00  0.0000000000000000e+00 0.0000000000000000e+00 0.0000000000000000e+00  0.0000000000000000e+00 0.0000000000000000e+00 0.0000000000000000e+00  0.0000000000000000e+00 0.0000000000000000e+00 0.0000000000000000e+00  0.0000000000000000e+00 0.0000000000000000e+00 0.0000000000000000e+00  0.0000000000000000e+00 0.0000000000000000e+00 0.0000000000000000e+00  0.0000000000000000e+00 0.0000000000000000e+00 0.0000000000000000e+00  0.0000000000000000e+00 0.0000000000000000e+00 0.0000000000000000e+00  0.0000000000000000e+00 0.0000000000000000e+00 0.0000000000000000e+00  0.0000000000000000e+00 0.0000000000000000e+00 0.0000000000000000e+00  0.0000000000000000e+00 0.0000000000000000e+00 0.0000000000000000e+00  0.0000000000000000e+00 0.0000000000000000e+00 0.0000000000000000e+00  0.0000000000000000e+00 0.0000000000000000e+00 0.0000000000000000e+00  0.0000000000000000e+00 0.0000000000000000e+00 0.0000000000000000e+00  0.0000000000000000e+00 0.0000000000000000e+00 0.0000000000000000e+00  0.0000000000000000e+00 0.0000000000000000e+00 0.0000000000000000e+00  0.0000000000000000e+00 0.0000000000000000e+00 0.0000000000000000e+00  0.0000000000000000e+00 0.0000000000000000e+00 0.0000000000000000e+00  0.0000000000000000e+00 0.0000000000000000e+00 0.0000000000000000e+00  0.0000000000000000e+00 0.0000000000000000e+00 0.0000000000000000e+00  0.0000000000000000e+00 0.0000000000000000e+00 0.0000000000000000e+00  0.0000000000000000e+00 0.0000000000000000e+00 0.0000000000000000e+00  0.0000000000000000e+00 0.0000000000000000e+00 0.0000000000000000e+00  0.0000000000000000e+00 0.0000000000000000e+00 0.0000000000000000e+00  0.0000000000000000e+00 0.0000000000000000e+00 0.0000000000000000e+00  0.0000000000000000e+00 0.0000000000000000e+00 0.0000000000000000e+00  2.1069486193411502e-07 2.6160407923489153e-08 0.0000000000000000e+00  -1.7968759564094086e-07 1.2507382714115413e-07 0.0000000000000000e+00  -1.9271298221933913e-07 3.8070579490748234e-09 0.0000000000000000e+00  -4.0600879494732444e-07 -3.8996783192149056e-08 0.0000000000000000e+00  -4.0162363664683827e-07 -6.9654392451636606e-08 0.0000000000000000e+00  -4.0073226739892952e-07 -7.8371885114274911e-08 0.0000000000000000e+00  -4.0118393865980514e-07 -7.4356214588101424e-08 0.0000000000000000e+00  -3.8831377494131025e-07 -6.7112338705678389e-08 0.0000000000000000e+00  -3.7438401938115542e-07 -5.8173208635584309e-08 0.0000000000000000e+00  -3.6007190898281927e-07 -4.8807326737806612e-08 0.0000000000000000e+00  -3.4712197603512621e-07 -3.9540560153992511e-08 0.0000000000000000e+00  -3.3714714748233952e-07 -3.0540981189641934e-08 0.0000000000000000e+00  -3.3087881402403583e-07 -2.1904739064081751e-08 0.0000000000000000e+00  -3.2886912566911268e-07 -1.3652511147777642e-08 0.0000000000000000e+00  -3.3145907844435261e-07 -5.7645847657472009e-09 0.0000000000000000e+00  -3.3885138733835789e-07 1.7906082146222124e-09 0.0000000000000000e+00  -3.5116172477978608e-07 9.0269896949077012e-09 0.0000000000000000e+00  -3.6841300431179753e-07 1.5907318946179338e-08 0.0000000000000000e+00  -3.9050281654481933e-07 2.2312436775167649e-08 0.0000000000000000e+00  -4.1714180055439276e-07 2.8022573136392767e-08 0.0000000000000000e+00  -4.4777761882039375e-07 3.2720641465511289e-08 0.0000000000000000e+00  -4.8152874210287516e-07 3.6023754460546345e-08 0.0000000000000000e+00  -5.1715090323653468e-07 3.7540778901794078e-08 0.0000000000000000e+00  -5.5306205542846637e-07 3.6943749791390730e-08 0.0000000000000000e+00  -5.8742254177124638e-07 3.4034207841619059e-08 0.0000000000000000e+00  -6.1828060562571205e-07 2.8784701743145706e-08 0.0000000000000000e+00  -6.4371289424388614e-07 2.1345964508268201e-08 0.0000000000000000e+00  -6.6201631000913711e-07 1.2014600980208915e-08 0.0000000000000000e+00  -6.7173689435909640e-07 1.1861598672763137e-09 0.0000000000000000e+00  -6.7190356634437617e-07 -1.0723944690177081e-08 0.0000000000000000e+00  -6.6167257830619013e-07 -2.3294510834904680e-08 0.0000000000000000e+00  -6.4104108306041435e-07 -3.6228526122870633e-08 0.0000000000000000e+00  -6.0923670287949365e-07 -4.9152595345777785e-08 0.0000000000000000e+00  -5.6787517176746069e-07 -6.2099635661941868e-08 0.0000000000000000e+00  -5.1424671689597858e-07 -7.4387790851758276e-08 0.0000000000000000e+00  -4.5507348776180334e-07 -8.7037636135381664e-08 0.0000000000000000e+00  -3.7805631456590796e-07 -9.7302521544833989e-08 0.0000000000000000e+00  -3.1049808811282567e-07 -1.1051032361597137e-07 0.0000000000000000e+00  -1.9905599277867636e-07 -1.1406715611501454e-07 0.0000000000000000e+00  -1.5581959800992368e-07 -1.3324338168362087e-07 0.0000000000000000e+00  4.2488533346389774e-08 -1.1129017674724931e-07 0.0000000000000000e+00  -5.9530560087755443e-08 -1.6239309500702504e-07 0.0000000000000000e+00  4.4209003017972420e-07 -4.0152500838910929e-08 0.0000000000000000e+00  -2.7632191793670297e-07 -2.3946753750262742e-07 0.0000000000000000e+00  1.3154233917838957e-06 2.4927963786738125e-07 0.0000000000000000e+00  -2.3989497463274721e-06 -7.4103641221116894e-07 0.0000000000000000e+00  2.7191953737531878e-06 1.3773093777704637e-06 0.0000000000000000e+00  0.0000000000000000e+00 0.0000000000000000e+00 0.0000000000000000e+00  0.0000000000000000e+00 0.0000000000000000e+00 0.0000000000000000e+00  -1.1496693538570401e-06 7.4471149864406356e-07 0.0000000000000000e+00  7.9733306443289424e-07 3.2865096108229603e-08 0.0000000000000000e+00  -2.1639090133467678e-07 1.5811215081236513e-07 0.0000000000000000e+00  -4.0020424583256900e-07 2.2381877656099874e-08 0.0000000000000000e+00  -4.2559465600053939e-07 -4.0308003603597449e-08 0.0000000000000000e+00  -4.9942392994973942e-07 -7.1901272485164217e-08 0.0000000000000000e+00  -5.1133924975018082e-07 -8.4600631971088270e-08 0.0000000000000000e+00  -5.1005422424728731e-07 -8.6432529695456272e-08 0.0000000000000000e+00  -5.0173187000310690e-07 -8.1531323417020814e-08 0.0000000000000000e+00  -4.8824616083207507e-07 -7.2689493030198245e-08 0.0000000000000000e+00  -4.7478575819544777e-07 -6.1431121642065670e-08 0.0000000000000000e+00  -4.6306929140943614e-07 -4.8758611574067400e-08 0.0000000000000000e+00  -4.5446616562740199e-07 -3.5336632685260245e-08 0.0000000000000000e+00  -4.4990907446904154e-07 -2.1580386139932162e-08 0.0000000000000000e+00  -4.4992067552168834e-07 -7.7413387242962931e-09 0.0000000000000000e+00  -4.5483081581709790e-07 6.0231931044963527e-09 0.0000000000000000e+00  -4.6481139084511225e-07 1.9579009662312904e-08 0.0000000000000000e+00  -4.7990102383721431e-07 3.2737573932207031e-08 0.0000000000000000e+00  -4.9998533237937190e-07 4.5182574887831803e-08 0.0000000000000000e+00  -5.2473439104113431e-07 5.6418444086981852e-08 0.0000000000000000e+00  -5.5351766748626817e-07 6.5762854947014378e-08 0.0000000000000000e+00  -5.8532474436440247e-07 7.2399763982497352e-08 0.0000000000000000e+00  -6.1872492626360068e-07 7.5492015819327506e-08 0.0000000000000000e+00  -6.5190225009163379e-07 7.4329600889361430e-08 0.0000000000000000e+00  -6.8276473672074291e-07 6.8472346177715656e-08 0.0000000000000000e+00  -7.0913603626591972e-07 5.7842875307370820e-08 0.0000000000000000e+00  -7.2893991215110566e-07 4.2744761823326980e-08 0.0000000000000000e+00  -7.4043108486066174e-07 2.3799219876073466e-08 0.0000000000000000e+00  -7.4222654036301269e-07 1.8389842089623364e-09 0.0000000000000000e+00  -7.3354649146371023e-07 -2.2240025139530779e-08 0.0000000000000000e+00  -7.1380082094375655e-07 -4.7550496461468260e-08 0.0000000000000000e+00  -6.8333405028715639e-07 -7.3381975523105608e-08 0.0000000000000000e+00  -6.4168349308900631e-07 -9.9012638795064046e-08 0.0000000000000000e+00  -5.9092197938468290e-07 -1.2417394908881022e-07 0.0000000000000000e+00  -5.2860884241442516e-07 -1.4793303074136930e-07 0.0000000000000000e+00  -4.6214556278310937e-07 -1.7097303016055616e-07 0.0000000000000000e+00  -3.7940464048315878e-07 -1.9035597873671057e-07 0.0000000000000000e+00  -3.0885370258778803e-07 -2.1057240705268083e-07 0.0000000000000000e+00  -1.9730571880882325e-07 -2.1935120424131531e-07 0.0000000000000000e+00  -1.5842897735536258e-07 -2.3884358162513377e-07 0.0000000000000000e+00  2.9569688551685078e-08 -2.1642211426100827e-07 0.0000000000000000e+00  -8.8053350477429658e-08 -2.5349634624603816e-07 0.0000000000000000e+00  3.8085704456498777e-07 -1.2879552128745801e-07 0.0000000000000000e+00  -3.6290330328970429e-07 -2.8489421237702356e-07 0.0000000000000000e+00  1.0930669116654800e-06 1.7395983342314188e-07 0.0000000000000000e+00  -2.4807362471077825e-06 -5.8295318345180872e-07 0.0000000000000000e+00  2.5529030949413350e-06 1.4421826049950385e-06 0.0000000000000000e+00  0.0000000000000000e+00 0.0000000000000000e+00 0.0000000000000000e+00  0.0000000000000000e+00 0.0000000000000000e+00 0.0000000000000000e+00  -2.2167281301289744e-06 1.2363185393809619e-06 0.0000000000000000e+00  1.7904501859057513e-06 -3.3712027809395134e-08 0.0000000000000000e+00  -4.5127436344084792e-07 3.4925326685234556e-07 0.0000000000000000e+00  -6.7936611863891087e-08 7.0574266039584688e-08 0.0000000000000000e+00  -2.2455246601847446e-07 2.3484688795830611e-08 0.0000000000000000e+00  -3.0178767900298405e-07 -4.2045345624828370e-08 0.0000000000000000e+00  -3.3497795396591851e-07 -7.1251256473287411e-08 0.0000000000000000e+00  -3.7494888747153201e-07 -8.4029714127250435e-08 0.0000000000000000e+00  -3.9645332166880478e-07 -8.5186230714740185e-08 0.0000000000000000e+00  -4.1047488073638510e-07 -7.8747563033072667e-08 0.0000000000000000e+00  -4.1988610370275468e-07 -6.7479494625713254e-08 0.0000000000000000e+00  -4.2639749125876588e-07 -5.3175404327536405e-08 0.0000000000000000e+00  -4.3224892018814986e-07 -3.7058003372836465e-08 0.0000000000000000e+00  -4.3869370076379872e-07 -1.9928212086724745e-08 0.0000000000000000e+00  -4.4668710560624797e-07 -2.2978945543208826e-09 0.0000000000000000e+00  -4.5691347403252123e-07 1.5505841986996512e-08 0.0000000000000000e+00  -4.6983607782196203e-07 3.3233135442688552e-08 0.0000000000000000e+00  -4.8575968008486617e-07 5.0590503807205408e-08 0.0000000000000000e+00  -5.0481760423941167e-07 6.7119784943681410e-08 0.0000000000000000e+00  -5.2691599320088867e-07 8.2103165549911055e-08 0.0000000000000000e+00  -5.5164020613776937e-07 9.4534287405587857e-08 0.0000000000000000e+00  -5.7815905688023627e-07 1.0318903207534236e-07 0.0000000000000000e+00  -6.0517425493347280e-07 1.0680048807730984e-07 0.0000000000000000e+00  -6.3096646491413043e-07 1.0429991692780568e-07 0.0000000000000000e+00  -6.5354234021264363e-07 9.5051109198740208e-08 0.0000000000000000e+00  -6.7088328858286047e-07 7.8999533643158979e-08 0.0000000000000000e+00  -6.8118191514146888e-07 5.6691257176523645e-08 0.0000000000000000e+00  -6.8310411534225210e-07 2.9157648983206112e-08 0.0000000000000000e+00  -6.7580712663686286e-07 -2.2722412564956417e-09 0.0000000000000000e+00  -6.5915361949980817e-07 -3.6204078506579274e-08 0.0000000000000000e+00  -6.3322419451525112e-07 -7.1309438067740620e-08 0.0000000000000000e+00  -5.9905688900515961e-07 -1.0652683227790808e-07 0.0000000000000000e+00  -5.5679486958956673e-07 -1.4086445619581099e-07 0.0000000000000000e+00  -5.0916900161134119e-07 -1.7385245108865897e-07 0.0000000000000000e+00  -4.5418001439869005e-07 -2.0437068944645307e-07 0.0000000000000000e+00  -3.9996369423233383e-07 -2.3290761754334000e-07 0.0000000000000000e+00  -3.3457185479135526e-07 -2.5629432023683685e-07 0.0000000000000000e+00  -2.8752050633823620e-07 -2.7860081529309459e-07 0.0000000000000000e+00  -2.0532360464403175e-07 -2.8747017324895416e-07 0.0000000000000000e+00  -2.0279486701262135e-07 -3.0368162929151169e-07 0.0000000000000000e+00  -5.8201245889821665e-08 -2.7701051862498828e-07 0.0000000000000000e+00  -2.2245252501476967e-07 -3.0259011116201061e-07 0.0000000000000000e+00  1.8494997722078943e-07 -1.7840921004803189e-07 0.0000000000000000e+00  -5.9459568366524824e-07 -3.1000584146701734e-07 0.0000000000000000e+00  7.7326613107919920e-07 1.0145116994218850e-07 0.0000000000000000e+00  -2.7247391720372463e-06 -5.3975374077705078e-07 0.0000000000000000e+00  2.1562770458145764e-06 1.2277002480277816e-06 0.0000000000000000e+00  0.0000000000000000e+00 0.0000000000000000e+00 0.0000000000000000e+00  0.0000000000000000e+00 0.0000000000000000e+00 0.0000000000000000e+00  -2.4671246760531558e-06 1.2864742201889309e-06 0.0000000000000000e+00  2.4190539823516533e-06 -4.7173428502759912e-08 0.0000000000000000e+00  -7.3348087548808158e-07 4.5078229725394454e-07 0.0000000000000000e+00  2.3661251669414521e-07 1.0536939340305593e-07 0.0000000000000000e+00  -2.0055315620976680e-07 1.1368351194776297e-07 0.0000000000000000e+00  -1.6235575829939629e-07 1.3718196298466444e-08 0.0000000000000000e+00  -2.2689798632600691e-07 -2.1840408487930732e-08 0.0000000000000000e+00  -2.7639866067709810e-07 -4.9798558247328743e-08 0.0000000000000000e+00  -3.0818612327126143e-07 -6.0749328460109351e-08 0.0000000000000000e+00  -3.3677773903974562e-07 -6.1594472776537433e-08 0.0000000000000000e+00  -3.5792675650867316e-07 -5.4967724225149931e-08 0.0000000000000000e+00  -3.7504573201697141e-07 -4.3210022973527698e-08 0.0000000000000000e+00  -3.8975575448974971e-07 -2.8064778804506291e-08 0.0000000000000000e+00  -4.0316914476860918e-07 -1.0739876136839217e-08 0.0000000000000000e+00  -4.1634221157681065e-07 7.9195326007668087e-09 0.0000000000000000e+00  -4.2998738803198524e-07 2.7350967540608714e-08 0.0000000000000000e+00  -4.4466025359487725e-07 4.7139970354564863e-08 0.0000000000000000e+00  -4.6078955591348651e-07 6.6863734614275265e-08 0.0000000000000000e+00  -4.7867066956633107e-07 8.5914590560754188e-08 0.0000000000000000e+00  -4.9840465770045487e-07 1.0334278818947882e-07 0.0000000000000000e+00  -5.1977175985791142e-07 1.1778676770901151e-07 0.0000000000000000e+00  -5.4209079663411622e-07 1.2755550341544304e-07 0.0000000000000000e+00  -5.6413303025108914e-07 1.3088308384324817e-07 0.0000000000000000e+00  -5.8417205154115971e-07 1.2629815774387796e-07 0.0000000000000000e+00  -6.0018566140052521e-07 1.1298475251771987e-07 0.0000000000000000e+00  -6.1019755691044631e-07 9.1000045516430799e-08 0.0000000000000000e+00  -6.1259733150529245e-07 6.1275253030902266e-08 0.0000000000000000e+00  -6.0644990815975816e-07 2.5408296051768351e-08 0.0000000000000000e+00  -5.9148011020215058e-07 -1.4648048541625127e-08 0.0000000000000000e+00  -5.6823985074788663e-07 -5.6928340848487761e-08 0.0000000000000000e+00  -5.3748582501009121e-07 -9.9651729492505951e-08 0.0000000000000000e+00  -5.0093337803951281e-07 -1.4143735081252022e-07 0.0000000000000000e+00  -4.5918147428637878e-07 -1.8108605777023568e-07 0.0000000000000000e+00  -4.1551546038269097e-07 -2.1797909103091862e-07 0.0000000000000000e+00  -3.6793879540511428e-07 -2.5088545744288762e-07 0.0000000000000000e+00  -3.2528280698635814e-07 -2.8010837831047646e-07 0.0000000000000000e+00  -2.7463208285973887e-07 -3.0239987495875863e-07 0.0000000000000000e+00  -2.4724101939618349e-07 -3.2136181501978069e-07 0.0000000000000000e+00  -1.8583320623342185e-07 -3.2510020003238848e-07 0.0000000000000000e+00  -2.1072748999164707e-07 -3.3290705698619717e-07 0.0000000000000000e+00  -8.7807210991886335e-08 -2.9855910517555433e-07 0.0000000000000000e+00  -2.8530417783513119e-07 -3.1065604071784564e-07 0.0000000000000000e+00  1.1322092442361564e-07 -1.8778110993020955e-07 0.0000000000000000e+00  -6.9847245741827334e-07 -2.9958189077537074e-07 0.0000000000000000e+00  6.9628752835516894e-07 6.6696286695731325e-08 0.0000000000000000e+00  -2.7948131830061456e-06 -4.9578037897402241e-07 0.0000000000000000e+00  2.1349441025440778e-06 1.0629827655120656e-06 0.0000000000000000e+00  0.0000000000000000e+00 0.0000000000000000e+00 0.0000000000000000e+00  0.0000000000000000e+00 0.0000000000000000e+00 0.0000000000000000e+00  -2.4119705662259199e-06 1.1829162428795107e-06 0.0000000000000000e+00  2.6746045520578775e-06 -2.1601957872030216e-08 0.0000000000000000e+00  -8.5730430216167939e-07 4.6495052078993882e-07 0.0000000000000000e+00  4.7507630182267685e-07 1.3407518663525028e-07 0.0000000000000000e+00  -2.1539538268752189e-07 1.8382623409523916e-07 0.0000000000000000e+00  -1.1473801528094143e-08 6.4315631237964341e-08 0.0000000000000000e+00  -1.3874892762251201e-07 3.3684924365447404e-08 0.0000000000000000e+00  -1.6680748214444497e-07 -7.4568890185768648e-09 0.0000000000000000e+00  -2.0895952118309871e-07 -2.5002343842370373e-08 0.0000000000000000e+00  -2.4556447077723505e-07 -3.3224589549738934e-08 0.0000000000000000e+00  -2.7458296011707944e-07 -3.1733296207441319e-08 0.0000000000000000e+00  -3.0025426659859402e-07 -2.3694665089151555e-08 0.0000000000000000e+00  -3.2233130366923164e-07 -1.0942613071920216e-08 0.0000000000000000e+00  -3.4209556764305030e-07 5.0195980417807667e-09 0.0000000000000000e+00  -3.6038051502783130e-07 2.3092695717540670e-08 0.0000000000000000e+00  -3.7781057076138825e-07 4.2534205406256349e-08 0.0000000000000000e+00  -3.9495574923440983e-07 6.2814367873326720e-08 0.0000000000000000e+00  -4.1230441160417861e-07 8.3446028351806056e-08 0.0000000000000000e+00  -4.3029408064108700e-07 1.0374194670704591e-07 0.0000000000000000e+00  -4.4922871975171645e-07 1.2256889323940693e-07 0.0000000000000000e+00  -4.6910009563274564e-07 1.3820217308078873e-07 0.0000000000000000e+00  -4.8936654767728481e-07 1.4840584005892100e-07 0.0000000000000000e+00  -5.0879656162831604e-07 1.5079728486323377e-07 0.0000000000000000e+00  -5.2551560216338783e-07 1.4341257683941416e-07 0.0000000000000000e+00  -5.3729779678675075e-07 1.2526035687518008e-07 0.0000000000000000e+00  -5.4206255319907982e-07 9.6631349868855264e-08 0.0000000000000000e+00  -5.3833236859413029e-07 5.9046579193093145e-08 0.0000000000000000e+00  -5.2560121270570724e-07 1.4886559405631209e-08 0.0000000000000000e+00  -5.0425592077155571e-07 -3.3114212795137167e-08 0.0000000000000000e+00  -4.7563557102139824e-07 -8.2358882283862140e-08 0.0000000000000000e+00  -4.4123455929108844e-07 -1.3065162385705931e-07 0.0000000000000000e+00  -4.0342209905299365e-07 -1.7640376834895749e-07 0.0000000000000000e+00  -3.6318199719226318e-07 -2.1835740059758354e-07 0.0000000000000000e+00  -3.2415779454534607e-07 -2.55910366527907