<?xml version="1.0"?>
<VTKFile type="UnstructuredGrid"  version="0.1"  >
<UnstructuredGrid>
<Piece  NumberOfPoints="1617" NumberOfCells="3072">
<Points>
<DataArray  type="Float64"  NumberOfComponents="3"  format="ascii">0 0 0  0.03125 0 0  0.0625 0 0  0.09375 0 0  0.125 0 0  0.15625 0 0  0.1875 0 0  0.21875 0 0  0.25 0 0  0.28125 0 0  0.3125 0 0  0.34375 0 0  0.375 0 0  0.40625 0 0  0.4375 0 0  0.46875 0 0  0.5 0 0  0.53125 0 0  0.5625 0 0  0.59375 0 0  0.625 0 0  0.65625 0 0  0.6875 0 0  0.71875 0 0  0.75 0 0  0.78125 0 0  0.8125 0 0  0.84375 0 0  0.875 0 0  0.90625 0 0  0.9375 0 0  0.96875 0 0  1 0 0  1.03125 0 0  1.0625 0 0  1.09375 0 0  1.125 0 0  1.15625 0 0  1.1875 0 0  1.21875 0 0  1.25 0 0  1.28125 0 0  1.3125 0 0  1.34375 0 0  1.375 0 0  1.40625 0 0  1.4375 0 0  1.46875 0 0  1.5 0 0  0 0.03125 0  0.03125 0.03125 0  0.0625 0.03125 0  0.09375 0.03125 0  0.125 0.03125 0  0.15625 0.03125 0  0.1875 0.03125 0  0.21875 0.03125 0  0.25 0.03125 0  0.28125 0.03125 0  0.3125 0.03125 0  0.34375 0.03125 0  0.375 0.03125 0  0.40625 0.03125 0  0.4375 0.03125 0  0.46875 0.03125 0  0.5 0.03125 0  0.53125 0.03125 0  0.5625 0.03125 0  0.59375 0.03125 0  0.625 0.03125 0  0.65625 0.03125 0  0.6875 0.03125 0  0.71875 0.03125 0  0.75 0.03125 0  0.78125 0.03125 0  0.8125 0.03125 0  0.84375 0.03125 0  0.875 0.03125 0  0.90625 0.03125 0  0.9375 0.03125 0  0.96875 0.03125 0  1 0.03125 0  1.03125 0.03125 0  1.0625 0.03125 0  1.09375 0.03125 0  1.125 0.03125 0  1.15625 0.03125 0  1.1875 0.03125 0  1.21875 0.03125 0  1.25 0.03125 0  1.28125 0.03125 0  1.3125 0.03125 0  1.34375 0.03125 0  1.375 0.03125 0  1.40625 0.03125 0  1.4375 0.03125 0  1.46875 0.03125 0  1.5 0.03125 0  0 0.0625 0  0.03125 0.0625 0  0.0625 0.0625 0  0.09375 0.0625 0  0.125 0.0625 0  0.15625 0.0625 0  0.1875 0.0625 0  0.21875 0.0625 0  0.25 0.0625 0  0.28125 0.0625 0  0.3125 0.0625 0  0.34375 0.0625 0  0.375 0.0625 0  0.40625 0.0625 0  0.4375 0.0625 0  0.46875 0.0625 0  0.5 0.0625 0  0.53125 0.0625 0  0.5625 0.0625 0  0.59375 0.0625 0  0.625 0.0625 0  0.65625 0.0625 0  0.6875 0.0625 0  0.71875 0.0625 0  0.75 0.0625 0  0.78125 0.0625 0  0.8125 0.0625 0  0.84375 0.0625 0  0.875 0.0625 0  0.90625 0.0625 0  0.9375 0.0625 0  0.96875 0.0625 0  1 0.0625 0  1.03125 0.0625 0  1.0625 0.0625 0  1.09375 0.0625 0  1.125 0.0625 0  1.15625 0.0625 0  1.1875 0.0625 0  1.21875 0.0625 0  1.25 0.0625 0  1.28125 0.0625 0  1.3125 0.0625 0  1.34375 0.0625 0  1.375 0.0625 0  1.40625 0.0625 0  1.4375 0.0625 0  1.46875 0.0625 0  1.5 0.0625 0  0 0.09375 0  0.03125 0.09375 0  0.0625 0.09375 0  0.09375 0.09375 0  0.125 0.09375 0  0.15625 0.09375 0  0.1875 0.09375 0  0.21875 0.09375 0  0.25 0.09375 0  0.28125 0.09375 0  0.3125 0.09375 0  0.34375 0.09375 0  0.375 0.09375 0  0.40625 0.09375 0  0.4375 0.09375 0  0.46875 0.09375 0  0.5 0.09375 0  0.53125 0.09375 0  0.5625 0.09375 0  0.59375 0.09375 0  0.625 0.09375 0  0.65625 0.09375 0  0.6875 0.09375 0  0.71875 0.09375 0  0.75 0.09375 0  0.78125 0.09375 0  0.8125 0.09375 0  0.84375 0.09375 0  0.875 0.09375 0  0.90625 0.09375 0  0.9375 0.09375 0  0.96875 0.09375 0  1 0.09375 0  1.03125 0.09375 0  1.0625 0.09375 0  1.09375 0.09375 0  1.125 0.09375 0  1.15625 0.09375 0  1.1875 0.09375 0  1.21875 0.09375 0  1.25 0.09375 0  1.28125 0.09375 0  1.3125 0.09375 0  1.34375 0.09375 0  1.375 0.09375 0  1.40625 0.09375 0  1.4375 0.09375 0  1.46875 0.09375 0  1.5 0.09375 0  0 0.125 0  0.03125 0.125 0  0.0625 0.125 0  0.09375 0.125 0  0.125 0.125 0  0.15625 0.125 0  0.1875 0.125 0  0.21875 0.125 0  0.25 0.125 0  0.28125 0.125 0  0.3125 0.125 0  0.34375 0.125 0  0.375 0.125 0  0.40625 0.125 0  0.4375 0.125 0  0.46875 0.125 0  0.5 0.125 0  0.53125 0.125 0  0.5625 0.125 0  0.59375 0.125 0  0.625 0.125 0  0.65625 0.125 0  0.6875 0.125 0  0.71875 0.125 0  0.75 0.125 0  0.78125 0.125 0  0.8125 0.125 0  0.84375 0.125 0  0.875 0.125 0  0.90625 0.125 0  0.9375 0.125 0  0.96875 0.125 0  1 0.125 0  1.03125 0.125 0  1.0625 0.125 0  1.09375 0.125 0  1.125 0.125 0  1.15625 0.125 0  1.1875 0.125 0  1.21875 0.125 0  1.25 0.125 0  1.28125 0.125 0  1.3125 0.125 0  1.34375 0.125 0  1.375 0.125 0  1.40625 0.125 0  1.4375 0.125 0  1.46875 0.125 0  1.5 0.125 0  0 0.15625 0  0.03125 0.15625 0  0.0625 0.15625 0  0.09375 0.15625 0  0.125 0.15625 0  0.15625 0.15625 0  0.1875 0.15625 0  0.21875 0.15625 0  0.25 0.15625 0  0.28125 0.15625 0  0.3125 0.15625 0  0.34375 0.15625 0  0.375 0.15625 0  0.40625 0.15625 0  0.4375 0.15625 0  0.46875 0.15625 0  0.5 0.15625 0  0.53125 0.15625 0  0.5625 0.15625 0  0.59375 0.15625 0  0.625 0.15625 0  0.65625 0.15625 0  0.6875 0.15625 0  0.71875 0.15625 0  0.75 0.15625 0  0.78125 0.15625 0  0.8125 0.15625 0  0.84375 0.15625 0  0.875 0.15625 0  0.90625 0.15625 0  0.9375 0.15625 0  0.96875 0.15625 0  1 0.15625 0  1.03125 0.15625 0  1.0625 0.15625 0  1.09375 0.15625 0  1.125 0.15625 0  1.15625 0.15625 0  1.1875 0.15625 0  1.21875 0.15625 0  1.25 0.15625 0  1.28125 0.15625 0  1.3125 0.15625 0  1.34375 0.15625 0  1.375 0.15625 0  1.40625 0.15625 0  1.4375 0.15625 0  1.46875 0.15625 0  1.5 0.15625 0  0 0.1875 0  0.03125 0.1875 0  0.0625 0.1875 0  0.09375 0.1875 0  0.125 0.1875 0  0.15625 0.1875 0  0.1875 0.1875 0  0.21875 0.1875 0  0.25 0.1875 0  0.28125 0.1875 0  0.3125 0.1875 0  0.34375 0.1875 0  0.375 0.1875 0  0.40625 0.1875 0  0.4375 0.1875 0  0.46875 0.1875 0  0.5 0.1875 0  0.53125 0.1875 0  0.5625 0.1875 0  0.59375 0.1875 0  0.625 0.1875 0  0.65625 0.1875 0  0.6875 0.1875 0  0.71875 0.1875 0  0.75 0.1875 0  0.78125 0.1875 0  0.8125 0.1875 0  0.84375 0.1875 0  0.875 0.1875 0  0.90625 0.1875 0  0.9375 0.1875 0  0.96875 0.1875 0  1 0.1875 0  1.03125 0.1875 0  1.0625 0.1875 0  1.09375 0.1875 0  1.125 0.1875 0  1.15625 0.1875 0  1.1875 0.1875 0  1.21875 0.1875 0  1.25 0.1875 0  1.28125 0.1875 0  1.3125 0.1875 0  1.34375 0.1875 0  1.375 0.1875 0  1.40625 0.1875 0  1.4375 0.1875 0  1.46875 0.1875 0  1.5 0.1875 0  0 0.21875 0  0.03125 0.21875 0  0.0625 0.21875 0  0.09375 0.21875 0  0.125 0.21875 0  0.15625 0.21875 0  0.1875 0.21875 0  0.21875 0.21875 0  0.25 0.21875 0  0.28125 0.21875 0  0.3125 0.21875 0  0.34375 0.21875 0  0.375 0.21875 0  0.40625 0.21875 0  0.4375 0.21875 0  0.46875 0.21875 0  0.5 0.21875 0  0.53125 0.21875 0  0.5625 0.21875 0  0.59375 0.21875 0  0.625 0.21875 0  0.65625 0.21875 0  0.6875 0.21875 0  0.71875 0.21875 0  0.75 0.21875 0  0.78125 0.21875 0  0.8125 0.21875 0  0.84375 0.21875 0  0.875 0.21875 0  0.90625 0.21875 0  0.9375 0.21875 0  0.96875 0.21875 0  1 0.21875 0  1.03125 0.21875 0  1.0625 0.21875 0  1.09375 0.21875 0  1.125 0.21875 0  1.15625 0.21875 0  1.1875 0.21875 0  1.21875 0.21875 0  1.25 0.21875 0  1.28125 0.21875 0  1.3125 0.21875 0  1.34375 0.21875 0  1.375 0.21875 0  1.40625 0.21875 0  1.4375 0.21875 0  1.46875 0.21875 0  1.5 0.21875 0  0 0.25 0  0.03125 0.25 0  0.0625 0.25 0  0.09375 0.25 0  0.125 0.25 0  0.15625 0.25 0  0.1875 0.25 0  0.21875 0.25 0  0.25 0.25 0  0.28125 0.25 0  0.3125 0.25 0  0.34375 0.25 0  0.375 0.25 0  0.40625 0.25 0  0.4375 0.25 0  0.46875 0.25 0  0.5 0.25 0  0.53125 0.25 0  0.5625 0.25 0  0.59375 0.25 0  0.625 0.25 0  0.65625 0.25 0  0.6875 0.25 0  0.71875 0.25 0  0.75 0.25 0  0.78125 0.25 0  0.8125 0.25 0  0.84375 0.25 0  0.875 0.25 0  0.90625 0.25 0  0.9375 0.25 0  0.96875 0.25 0  1 0.25 0  1.03125 0.25 0  1.0625 0.25 0  1.09375 0.25 0  1.125 0.25 0  1.15625 0.25 0  1.1875 0.25 0  1.21875 0.25 0  1.25 0.25 0  1.28125 0.25 0  1.3125 0.25 0  1.34375 0.25 0  1.375 0.25 0  1.40625 0.25 0  1.4375 0.25 0  1.46875 0.25 0  1.5 0.25 0  0 0.28125 0  0.03125 0.28125 0  0.0625 0.28125 0  0.09375 0.28125 0  0.125 0.28125 0  0.15625 0.28125 0  0.1875 0.28125 0  0.21875 0.28125 0  0.25 0.28125 0  0.28125 0.28125 0  0.3125 0.28125 0  0.34375 0.28125 0  0.375 0.28125 0  0.40625 0.28125 0  0.4375 0.28125 0  0.46875 0.28125 0  0.5 0.28125 0  0.53125 0.28125 0  0.5625 0.28125 0  0.59375 0.28125 0  0.625 0.28125 0  0.65625 0.28125 0  0.6875 0.28125 0  0.71875 0.28125 0  0.75 0.28125 0  0.78125 0.28125 0  0.8125 0.28125 0  0.84375 0.28125 0  0.875 0.28125 0  0.90625 0.28125 0  0.9375 0.28125 0  0.96875 0.28125 0  1 0.28125 0  1.03125 0.28125 0  1.0625 0.28125 0  1.09375 0.28125 0  1.125 0.28125 0  1.15625 0.28125 0  1.1875 0.28125 0  1.21875 0.28125 0  1.25 0.28125 0  1.28125 0.28125 0  1.3125 0.28125 0  1.34375 0.28125 0  1.375 0.28125 0  1.40625 0.28125 0  1.4375 0.28125 0  1.46875 0.28125 0  1.5 0.28125 0  0 0.3125 0  0.03125 0.3125 0  0.0625 0.3125 0  0.09375 0.3125 0  0.125 0.3125 0  0.15625 0.3125 0  0.1875 0.3125 0  0.21875 0.3125 0  0.25 0.3125 0  0.28125 0.3125 0  0.3125 0.3125 0  0.34375 0.3125 0  0.375 0.3125 0  0.40625 0.3125 0  0.4375 0.3125 0  0.46875 0.3125 0  0.5 0.3125 0  0.53125 0.3125 0  0.5625 0.3125 0  0.59375 0.3125 0  0.625 0.3125 0  0.65625 0.3125 0  0.6875 0.3125 0  0.71875 0.3125 0  0.75 0.3125 0  0.78125 0.3125 0  0.8125 0.3125 0  0.84375 0.3125 0  0.875 0.3125 0  0.90625 0.3125 0  0.9375 0.3125 0  0.96875 0.3125 0  1 0.3125 0  1.03125 0.3125 0  1.0625 0.3125 0  1.09375 0.3125 0  1.125 0.3125 0  1.15625 0.3125 0  1.1875 0.3125 0  1.21875 0.3125 0  1.25 0.3125 0  1.28125 0.3125 0  1.3125 0.3125 0  1.34375 0.3125 0  1.375 0.3125 0  1.40625 0.3125 0  1.4375 0.3125 0  1.46875 0.3125 0  1.5 0.3125 0  0 0.34375 0  0.03125 0.34375 0  0.0625 0.34375 0  0.09375 0.34375 0  0.125 0.34375 0  0.15625 0.34375 0  0.1875 0.34375 0  0.21875 0.34375 0  0.25 0.34375 0  0.28125 0.34375 0  0.3125 0.34375 0  0.34375 0.34375 0  0.375 0.34375 0  0.40625 0.34375 0  0.4375 0.34375 0  0.46875 0.34375 0  0.5 0.34375 0  0.53125 0.34375 0  0.5625 0.34375 0  0.59375 0.34375 0  0.625 0.34375 0  0.65625 0.34375 0  0.6875 0.34375 0  0.71875 0.34375 0  0.75 0.34375 0  0.78125 0.34375 0  0.8125 0.34375 0  0.84375 0.34375 0  0.875 0.34375 0  0.90625 0.34375 0  0.9375 0.34375 0  0.96875 0.34375 0  1 0.34375 0  1.03125 0.34375 0  1.0625 0.34375 0  1.09375 0.34375 0  1.125 0.34375 0  1.15625 0.34375 0  1.1875 0.34375 0  1.21875 0.34375 0  1.25 0.34375 0  1.28125 0.34375 0  1.3125 0.34375 0  1.34375 0.34375 0  1.375 0.34375 0  1
[...]
<PointData  Vectors="f_17"> 
<DataArray  type="Float64"  Name="f_17"  NumberOfComponents="3" format="ascii">0.0000000000000000e+00 0.0000000000000000e+00 0.0000000000000000e+00  0.0000000000000000e+00 0.0000000000000000e+00 0.0000000000000000e+00  0.0000000000000000e+00 0.0000000000000000e+00 0.0000000000000000e+00  0.0000000000000000e+00 0.0000000000000000e+00 0.0000000000000000e+00  0.0000000000000000e+00 0.0000000000000000e+00 0.0000000000000000e+00  0.0000000000000000e+00 0.0000000000000000e+00 0.0000000000000000e+00  0.0000000000000000e+00 0.0000000000000000e+00 0.0000000000000000e+00  0.0000000000000000e+00 0.0000000000000000e+00 0.0000000000000000e+00  0.0000000000000000e+00 0.0000000000000000e+00 0.0000000000000000e+00  0.0000000000000000e+00 0.0000000000000000e+00 0.0000000000000000e+00  0.0000000000000000e+00 0.0000000000000000e+00 0.0000000000000000e+00  0.0000000000000000e+00 0.0000000000000000e+00 0.0000000000000000e+00  0.0000000000000000e+00 0.0000000000000000e+00 0.0000000000000000e+00  0.0000000000000000e+00 0.0000000000000000e+00 0.0000000000000000e+00  0.0000000000000000e+00 0.0000000000000000e+00 0.0000000000000000e+00  0.0000000000000000e+00 0.0000000000000000e+00 0.0000000000000000e+00  0.0000000000000000e+00 0.0000000000000000e+00 0.0000000000000000e+00  0.0000000000000000e+00 0.0000000000000000e+00 0.0000000000000000e+00  0.0000000000000000e+00 0.0000000000000000e+00 0.0000000000000000e+00  0.0000000000000000e+00 0.0000000000000000e+00 0.0000000000000000e+00  0.0000000000000000e+00 0.0000000000000000e+00 0.0000000000000000e+00  0.0000000000000000e+00 0.0000000000000000e+00 0.0000000000000000e+00  0.0000000000000000e+00 0.0000000000000000e+00 0.0000000000000000e+00  0.0000000000000000e+00 0.0000000000000000e+00 0.0000000000000000e+00  0.0000000000000000e+00 0.0000000000000000e+00 0.0000000000000000e+00  0.0000000000000000e+00 0.0000000000000000e+00 0.0000000000000000e+00  0.0000000000000000e+00 0.0000000000000000e+00 0.0000000000000000e+00  0.0000000000000000e+00 0.0000000000000000e+00 0.0000000000000000e+00  0.0000000000000000e+00 0.0000000000000000e+00 0.0000000000000000e+00  0.0000000000000000e+00 0.0000000000000000e+00 0.0000000000000000e+00  0.0000000000000000e+00 0.0000000000000000e+00 0.0000000000000000e+00  0.0000000000000000e+00 0.0000000000000000e+00 0.0000000000000000e+00  0.0000000000000000e+00 0.0000000000000000e+00 0.0000000000000000e+00  0.0000000000000000e+00 0.0000000000000000e+00 0.0000000000000000e+00  0.0000000000000000e+00 0.0000000000000000e+00 0.0000000000000000e+00  0.0000000000000000e+00 0.0000000000000000e+00 0.0000000000000000e+00  0.0000000000000000e+00 0.0000000000000000e+00 0.0000000000000000e+00  0.0000000000000000e+00 0.0000000000000000e+00 0.0000000000000000e+00  0.0000000000000000e+00 0.0000000000000000e+00 0.0000000000000000e+00  0.0000000000000000e+00 0.0000000000000000e+00 0.0000000000000000e+00  0.0000000000000000e+00 0.0000000000000000e+00 0.0000000000000000e+00  0.0000000000000000e+00 0.0000000000000000e+00 0.0000000000000000e+00  0.0000000000000000e+00 0.0000000000000000e+00 0.0000000000000000e+00  0.0000000000000000e+00 0.0000000000000000e+00 0.0000000000000000e+00  0.0000000000000000e+00 0.0000000000000000e+00 0.0000000000000000e+00  0.0000000000000000e+00 0.0000000000000000e+00 0.0000000000000000e+00  0.0000000000000000e+00 0.0000000000000000e+00 0.0000000000000000e+00  0.0000000000000000e+00 0.0000000000000000e+00 0.0000000000000000e+00  0.0000000000000000e+00 0.0000000000000000e+00 0.0000000000000000e+00  0.0000000000000000e+00 0.0000000000000000e+00 0.0000000000000000e+00  1.0998928429863514e-07 -7.0209980022227731e-08 0.0000000000000000e+00  -1.4473608391856937e-07 8.9433471824655851e-08 0.0000000000000000e+00  -4.0055301760383763e-08 -9.3033009748185367e-09 0.0000000000000000e+00  -2.2838280447655920e-07 -4.0027200067885518e-08 0.0000000000000000e+00  -2.1775849123052782e-07 -6.5301848888422090e-08 0.0000000000000000e+00  -2.1234944359991009e-07 -7.0811611546708328e-08 0.0000000000000000e+00  -2.1054025511879571e-07 -6.4701614699673191e-08 0.0000000000000000e+00  -1.9740479634671874e-07 -5.6195064857927467e-08 0.0000000000000000e+00  -1.8482180031302121e-07 -4.6587871322711746e-08 0.0000000000000000e+00  -1.7301982907552338e-07 -3.6990470366975456e-08 0.0000000000000000e+00  -1.6333934431991165e-07 -2.7814219480461096e-08 0.0000000000000000e+00  -1.5705873568272999e-07 -1.9139134712184088e-08 0.0000000000000000e+00  -1.5465447541832411e-07 -1.0987112765369585e-08 0.0000000000000000e+00  -1.5649617526444583e-07 -3.3130962302282427e-09 0.0000000000000000e+00  -1.6280689048464293e-07 3.9626869668158059e-09 0.0000000000000000e+00  -1.7372910048544874e-07 1.0927174063360288e-08 0.0000000000000000e+00  -1.8937028649832366e-07 1.7644732786413229e-08 0.0000000000000000e+00  -2.0979215329957374e-07 2.4122629293303040e-08 0.0000000000000000e+00  -2.3497270610236246e-07 3.0278855332249507e-08 0.0000000000000000e+00  -2.6473826648612590e-07 3.5922052834012316e-08 0.0000000000000000e+00  -2.9867976219357774e-07 4.0753930421042184e-08 0.0000000000000000e+00  -3.3607765637035546e-07 4.4400765175516115e-08 0.0000000000000000e+00  -3.7585901257211834e-07 4.6471877053550175e-08 0.0000000000000000e+00  -4.1661339308310785e-07 4.6632600808076588e-08 0.0000000000000000e+00  -4.5666505302016883e-07 4.4672289747742575e-08 0.0000000000000000e+00  -4.9421181549607538e-07 4.0547107799036173e-08 0.0000000000000000e+00  -5.2746019728391513e-07 3.4387913023616138e-08 0.0000000000000000e+00  -5.5481259606842536e-07 2.6468168981883451e-08 0.0000000000000000e+00  -5.7489230318583175e-07 1.7156994255424861e-08 0.0000000000000000e+00  -5.8677341781636904e-07 6.8400036055858902e-09 0.0000000000000000e+00  -5.8962299610348437e-07 -4.0949202593861481e-09 0.0000000000000000e+00  -5.8341090107135389e-07 -1.5387880746918642e-08 0.0000000000000000e+00  -5.6729955473358053e-07 -2.6707152889370352e-08 0.0000000000000000e+00  -5.4279343820524268e-07 -3.8132842995759919e-08 0.0000000000000000e+00  -5.0703092825068971e-07 -4.9038063801688794e-08 0.0000000000000000e+00  -4.6651212698488390e-07 -6.0507462964662168e-08 0.0000000000000000e+00  -4.0867765350696641e-07 -6.9873664412400086e-08 0.0000000000000000e+00  -3.6041656139955721e-07 -8.2558101639725736e-08 0.0000000000000000e+00  -2.6801445260227561e-07 -8.6101370183447117e-08 0.0000000000000000e+00  -2.4276650673563088e-07 -1.0593063871937445e-07 0.0000000000000000e+00  -6.1236138841373038e-08 -8.5634982935596621e-08 0.0000000000000000e+00  -1.7757908934356488e-07 -1.3978666907860831e-07 0.0000000000000000e+00  3.1085317820705873e-07 -2.3142106510457461e-08 0.0000000000000000e+00  -4.2462657995312540e-07 -2.3363553644736836e-07 0.0000000000000000e+00  1.1441119254373108e-06 2.3668763236748678e-07 0.0000000000000000e+00  -2.3949690243088551e-06 -7.6268624721498268e-07 0.0000000000000000e+00  2.9250422467982287e-06 1.2975359171189099e-06 0.0000000000000000e+00  0.0000000000000000e+00 0.0000000000000000e+00 0.0000000000000000e+00  0.0000000000000000e+00 0.0000000000000000e+00 0.0000000000000000e+00  -1.3326478724595888e-06 5.8009370204117521e-07 0.0000000000000000e+00  7.6460014035436209e-07 -6.0345804162380749e-08 0.0000000000000000e+00  -7.8389494606633886e-08 1.0462313045675564e-07 0.0000000000000000e+00  -2.2648198149174772e-07 -5.2334634876528803e-09 0.0000000000000000e+00  -2.3800283612717771e-07 -5.2355185501920785e-08 0.0000000000000000e+00  -2.9865146678758586e-07 -7.4180744447565769e-08 0.0000000000000000e+00  -3.0171530306387310e-07 -8.0371983285073390e-08 0.0000000000000000e+00  -2.9535772628966550e-07 -7.7768122069949918e-08 0.0000000000000000e+00  -2.8487651540591820e-07 -6.9892480528430248e-08 0.0000000000000000e+00  -2.7138887355786827e-07 -5.9167104815536599e-08 0.0000000000000000e+00  -2.5943821346538343e-07 -4.6863771093720674e-08 0.0000000000000000e+00  -2.5022011143672956e-07 -3.3786645024397553e-08 0.0000000000000000e+00  -2.4469536299643296e-07 -2.0432542912203597e-08 0.0000000000000000e+00  -2.4348908473715576e-07 -7.0679328275096342e-09 0.0000000000000000e+00  -2.4690687026781234e-07 6.1911674175471348e-09 0.0000000000000000e+00  -2.5514259532602270e-07 1.9312281737567562e-08 0.0000000000000000e+00  -2.6830598623634432e-07 3.2275992521056501e-08 0.0000000000000000e+00  -2.8644089064801881e-07 4.4997365124015553e-08 0.0000000000000000e+00  -3.0949891402639624e-07 5.7250078587464477e-08 0.0000000000000000e+00  -3.3726894780273756e-07 6.8611827485228039e-08 0.0000000000000000e+00  -3.6928218541015555e-07 7.8453933641711662e-08 0.0000000000000000e+00  -4.0472097270353156e-07 8.5992674585194989e-08 0.0000000000000000e+00  -4.4236542708584080e-07 9.0401908576289839e-08 0.0000000000000000e+00  -4.8061561894662222e-07 9.0962943697503518e-08 0.0000000000000000e+00  -5.1758925477883654e-07 8.7209713646918398e-08 0.0000000000000000e+00  -5.5130329246917462e-07 7.9024301661208279e-08 0.0000000000000000e+00  -5.7984961055546336e-07 6.6657341187279784e-08 0.0000000000000000e+00  -6.0161750545461080e-07 5.0666673186623763e-08 0.0000000000000000e+00  -6.1531738480282240e-07 3.1813101858703987e-08 0.0000000000000000e+00  -6.2021454690003354e-07 1.0913767991749730e-08 0.0000000000000000e+00  -6.1571093323459853e-07 -1.1228383312985120e-08 0.0000000000000000e+00  -6.0208503576058366e-07 -3.3992656255418366e-08 0.0000000000000000e+00  -5.7874989913440297e-07 -5.6753430847368766e-08 0.0000000000000000e+00  -5.4758767073217212e-07 -7.9347772925074047e-08 0.0000000000000000e+00  -5.0590562599832475e-07 -1.0096191266141166e-07 0.0000000000000000e+00  -4.6076268483204634e-07 -1.2241860255482100e-07 0.0000000000000000e+00  -3.9962607638013128e-07 -1.4094767685660533e-07 0.0000000000000000e+00  -3.5038947853838681e-07 -1.6125238867385492e-07 0.0000000000000000e+00  -2.5930217705698219e-07 -1.7134138691046285e-07 0.0000000000000000e+00  -2.3905746246812491e-07 -1.9376461202620012e-07 0.0000000000000000e+00  -6.7503221373358954e-08 -1.7653247175420883e-07 0.0000000000000000e+00  -1.9784549434612127e-07 -2.2202599645155603e-07 0.0000000000000000e+00  2.6080361203520833e-07 -1.1094267662799422e-07 0.0000000000000000e+00  -4.9378675686136227e-07 -2.8958134147073901e-07 0.0000000000000000e+00  9.6296984360794870e-07 1.3919485061005887e-07 0.0000000000000000e+00  -2.4231467163733757e-06 -6.4668654884635426e-07 0.0000000000000000e+00  2.7833113678566920e-06 1.3046592815336352e-06 0.0000000000000000e+00  0.0000000000000000e+00 0.0000000000000000e+00 0.0000000000000000e+00  0.0000000000000000e+00 0.0000000000000000e+00 0.0000000000000000e+00  -2.4474854778476809e-06 1.0431687276743246e-06 0.0000000000000000e+00  1.6947541237147711e-06 -1.7035712865205288e-07 0.0000000000000000e+00  -3.6732328548726781e-07 2.5366287021151762e-07 0.0000000000000000e+00  4.4911863481136609e-08 1.0642284458827106e-08 0.0000000000000000e+00  -9.5476535411956124e-08 -1.0808172763027297e-08 0.0000000000000000e+00  -1.5303017420052659e-07 -5.9374095617371418e-08 0.0000000000000000e+00  -1.7118075405011760e-07 -7.6875913174352463e-08 0.0000000000000000e+00  -2.0054249069830431e-07 -8.1391776409005171e-08 0.0000000000000000e+00  -2.1497361811707570e-07 -7.6746221511599415e-08 0.0000000000000000e+00  -2.2467227730484550e-07 -6.6359106276260318e-08 0.0000000000000000e+00  -2.3178946831052110e-07 -5.2589622909603934e-08 0.0000000000000000e+00  -2.3744573170550684e-07 -3.6910506964633294e-08 0.0000000000000000e+00  -2.4340382737308189e-07 -2.0273875929197757e-08 0.0000000000000000e+00  -2.5054572006676712e-07 -3.2396424537017405e-09 0.0000000000000000e+00  -2.5954991100668141e-07 1.3900714137030904e-08 0.0000000000000000e+00  -2.7091063944030771e-07 3.1024287266033225e-08 0.0000000000000000e+00  -2.8498179180962542e-07 4.8070675827851012e-08 0.0000000000000000e+00  -3.0203400042766817e-07 6.4919936497169437e-08 0.0000000000000000e+00  -3.2223550339510937e-07 8.1267865124433954e-08 0.0000000000000000e+00  -3.4558799711243934e-07 9.6525597490557140e-08 0.0000000000000000e+00  -3.7182159024479379e-07 1.0978496495943054e-07 0.0000000000000000e+00  -4.0028482817927598e-07 1.1988504649449873e-07 0.0000000000000000e+00  -4.2987873451568678e-07 1.2558574550390083e-07 0.0000000000000000e+00  -4.5908852648234526e-07 1.2581024529313240e-07 0.0000000000000000e+00  -4.8611895932588285e-07 1.1988260908684396e-07 0.0000000000000000e+00  -5.0913382828327399e-07 1.0768065109468089e-07 0.0000000000000000e+00  -5.2648400316870647e-07 8.9658554733115002e-08 0.0000000000000000e+00  -5.3696013957986355e-07 6.6735499499376247e-08 0.0000000000000000e+00  -5.3980060782457152e-07 4.0112458151948839e-08 0.0000000000000000e+00  -5.3489525906480979e-07 1.1044339146860606e-08 0.0000000000000000e+00  -5.2229075430394537e-07 -1.9287518321129231e-08 0.0000000000000000e+00  -5.0292365187910692e-07 -4.9974719129909267e-08 0.0000000000000000e+00  -4.7676837677710142e-07 -8.0185670646384244e-08 0.0000000000000000e+00  -4.4631237418543850e-07 -1.0962208736949128e-07 0.0000000000000000e+00  -4.0924648089007332e-07 -1.3735389652351569e-07 0.0000000000000000e+00  -3.7330172872892152e-07 -1.6408834530316269e-07 0.0000000000000000e+00  -3.2606667339617738e-07 -1.8691839994500790e-07 0.0000000000000000e+00  -2.9642763221424761e-07 -2.1024066327878706e-07 0.0000000000000000e+00  -2.3030697115237622e-07 -2.2212913581924058e-07 0.0000000000000000e+00  -2.4152792517902529e-07 -2.4395365412429698e-07 0.0000000000000000e+00  -1.0805440468283690e-07 -2.2639949984158171e-07 0.0000000000000000e+00  -2.7931771336309952e-07 -2.6585922129224967e-07 0.0000000000000000e+00  1.2380928204069068e-07 -1.6250336904612767e-07 0.0000000000000000e+00  -6.6050176262880539e-07 -3.2490306097302294e-07 0.0000000000000000e+00  7.1241183014779833e-07 4.8890914830289491e-08 0.0000000000000000e+00  -2.6048227866316065e-06 -6.2660401980461802e-07 0.0000000000000000e+00  2.4145971184909099e-06 1.0733185993646009e-06 0.0000000000000000e+00  0.0000000000000000e+00 0.0000000000000000e+00 0.0000000000000000e+00  0.0000000000000000e+00 0.0000000000000000e+00 0.0000000000000000e+00  -2.7164928604725602e-06 1.0860350444267080e-06 0.0000000000000000e+00  2.2915585913111491e-06 -2.0872873086481383e-07 0.0000000000000000e+00  -6.8867026970173674e-07 3.2296781063503689e-07 0.0000000000000000e+00  2.9801391531935315e-07 1.4867640747741388e-08 0.0000000000000000e+00  -1.2592696284262227e-07 5.4691453465899493e-08 0.0000000000000000e+00  -6.7677553312079799e-08 -2.2557952355962536e-08 0.0000000000000000e+00  -1.1495118166695312e-07 -4.1528300655318021e-08 0.0000000000000000e+00  -1.5076870246814359e-07 -5.7306246073642993e-08 0.0000000000000000e+00  -1.7215186286946267e-07 -5.9378849736410358e-08 0.0000000000000000e+00  -1.9313562820625312e-07 -5.3913561958023530e-08 0.0000000000000000e+00  -2.0886847627203767e-07 -4.3021738435171173e-08 0.0000000000000000e+00  -2.2222395053317725e-07 -2.8624010733447174e-08 0.0000000000000000e+00  -2.3436208454352487e-07 -1.2103782417566355e-08 0.0000000000000000e+00  -2.4602194704639490e-07 5.6569403938495158e-09 0.0000000000000000e+00  -2.5796819195328982e-07 2.4114884280306903e-08 0.0000000000000000e+00  -2.7070130864078184e-07 4.2990833293301404e-08 0.0000000000000000e+00  -2.8464222288622183e-07 6.2136647546971512e-08 0.0000000000000000e+00  -3.0015986152384963e-07 8.1376969001425842e-08 0.0000000000000000e+00  -3.1756019330200314e-07 1.0032690508163958e-07 0.0000000000000000e+00  -3.3701700804877108e-07 1.1822582209948597e-07 0.0000000000000000e+00  -3.5843220034498471e-07 1.3385774768583939e-07 0.0000000000000000e+00  -3.8127783085865514e-07 1.4562634679771397e-07 0.0000000000000000e+00  -4.0449173652305220e-07 1.5180718181584268e-07 0.0000000000000000e+00  -4.2651262455406571e-07 1.5091980200086503e-07 0.0000000000000000e+00  -4.4547327966222742e-07 1.4209366652386426e-07 0.0000000000000000e+00  -4.5953821122044003e-07 1.2529094697934942e-07 0.0000000000000000e+00  -4.6721971020538101e-07 1.0131185841280413e-07 0.0000000000000000e+00  -4.6767912491553257e-07 7.1592361518166446e-08 0.0000000000000000e+00  -4.6069919530876906e-07 3.7898951649751081e-08 0.0000000000000000e+00  -4.4683728789148127e-07 1.9941484599821353e-09 0.0000000000000000e+00  -4.2679317237056626e-07 -3.4553890871227409e-08 0.0000000000000000e+00  -4.0215551222789900e-07 -7.0582891209102583e-08 0.0000000000000000e+00  -3.7332860766788066e-07 -1.0511856620907387e-07 0.0000000000000000e+00  -3.4333003853780395e-07 -1.3777826074312124e-07 0.0000000000000000e+00  -3.0983548019920975e-07 -1.6758734332573113e-07 0.0000000000000000e+00  -2.8126366607762642e-07 -1.9513834930355213e-07 0.0000000000000000e+00  -2.4424799278986955e-07 -2.1752290976925957e-07 0.0000000000000000e+00  -2.2945076037543850e-07 -2.3875670027706500e-07 0.0000000000000000e+00  -1.7908868638201924e-07 -2.4747495107015333e-07 0.0000000000000000e+00  -2.1263303124428425e-07 -2.6366348418029557e-07 0.0000000000000000e+00  -9.5914454577608880e-08 -2.4208605129614828e-07 0.0000000000000000e+00  -2.9606893377230598e-07 -2.7257391373089400e-07 0.0000000000000000e+00  1.0126630122851048e-07 -1.7550812209545882e-07 0.0000000000000000e+00  -7.1468243669137946e-07 -3.2242184051598706e-07 0.0000000000000000e+00  6.8073784404499212e-07 3.9876203535384334e-09 0.0000000000000000e+00  -2.6419458238972052e-06 -5.9207765908327030e-07 0.0000000000000000e+00  2.4069678924282526e-06 9.0913258676959989e-07 0.0000000000000000e+00  0.0000000000000000e+00 0.0000000000000000e+00 0.0000000000000000e+00  0.0000000000000000e+00 0.0000000000000000e+00 0.0000000000000000e+00  -2.6708563480851829e-06 9.8621070278061418e-07 0.0000000000000000e+00  2.5289318545486065e-06 -1.9392169404218138e-07 0.0000000000000000e+00  -8.3924778305835957e-07 3.1735708766466898e-07 0.0000000000000000e+00  4.9893156684285691e-07 2.0416914508744451e-08 0.0000000000000000e+00  -1.8413417929463055e-07 1.0277815829709745e-07 0.0000000000000000e+00  3.5927228134938206e-08 9.0525723539410675e-09 0.0000000000000000e+00  -7.5188757973900104e-08 -1.5181970358846700e-09 0.0000000000000000e+00  -8.9168098810712392e-08 -2.7264389802325725e-08 0.0000000000000000e+00  -1.1962358873348278e-07 -3.3162831762448144e-08 0.0000000000000000e+00  -1.4689174481525438e-07 -3.2802758848498852e-08 0.0000000000000000e+00  -1.6856852168513450e-07 -2.5243928404554249e-08 0.0000000000000000e+00  -1.8849884297871529e-07 -1.3189201481119152e-08 0.0000000000000000e+00  -2.0606634541379338e-07 1.9427906285315069e-09 0.0000000000000000e+00  -2.2223144115855121e-07 1.9036102616019863e-08 0.0000000000000000e+00  -2.3756316525378577e-07 3.7358744268284711e-08 0.0000000000000000e+00  -2.5248378463482913e-07 5.6520024948346830e-08 0.0000000000000000e+00  -2.6742648404169330e-07 7.6327289826318024e-08 0.0000000000000000e+00  -2.8281052538546831e-07 9.6612207908968646e-08 0.0000000000000000e+00  -2.9907078091077934e-07 1.1697875355560175e-07 0.0000000000000000e+00  -3.1656756742358175e-07 1.3654265627540821e-07 0.0000000000000000e+00  -3.3539254993025459e-07 1.5376970683190891e-07 0.0000000000000000e+00  -3.5512543584193406e-07 1.6654446796800321e-07 0.0000000000000000e+00  -3.7465510699757985e-07 1.7253296272938790e-07 0.0000000000000000e+00  -3.9221220681689144e-07 1.6975491680792680e-07 0.0000000000000000e+00  -4.0565961021426028e-07 1.5714720826433218e-07 0.0000000000000000e+00  -4.1299658927495803e-07 1.3488002964388994e-07 0.0000000000000000e+00  -4.1282196008799357e-07 1.0430861580716707e-07 0.0000000000000000e+00  -4.0469643585983548e-07 6.7606588163662917e-08 0.0000000000000000e+00  -3.8904739022323121e-07 2.7268258397164295e-08 0.0000000000000000e+00  -3.6720784024657671e-07 -1.4372059068502620e-08 0.0000000000000000e+00  -3.4060553638559146e-07 -5.5392634428786568e-08 0.0000000000000000e+00  -3.1147465236276850e-07 -9.4483426096717937e-08 0.0000000000000000e+00  -2.8060038888609047e-07 -1.3066846976788041e-07 0.0000000000000000e+00  -2.5136312712631581e-07 -1.6363563550432953e-0