<?xml version="1.0"?>
<VTKFile type="UnstructuredGrid"  version="0.1"  >
<UnstructuredGrid>
<Piece  NumberOfPoints="1617" NumberOfCells="3072">
<Points>
<DataArray  type="Float64"  NumberOfComponents="3"  format="ascii">0 0 0  0.03125 0 0  0.0625 0 0  0.09375 0 0  0.125 0 0  0.15625 0 0  0.1875 0 0  0.21875 0 0  0.25 0 0  0.28125 0 0  0.3125 0 0  0.34375 0 0  0.375 0 0  0.40625 0 0  0.4375 0 0  0.46875 0 0  0.5 0 0  0.53125 0 0  0.5625 0 0  0.59375 0 0  0.625 0 0  0.65625 0 0  0.6875 0 0  0.71875 0 0  0.75 0 0  0.78125 0 0  0.8125 0 0  0.84375 0 0  0.875 0 0  0.90625 0 0  0.9375 0 0  0.96875 0 0  1 0 0  1.03125 0 0  1.0625 0 0  1.09375 0 0  1.125 0 0  1.15625 0 0  1.1875 0 0  1.21875 0 0  1.25 0 0  1.28125 0 0  1.3125 0 0  1.34375 0 0  1.375 0 0  1.40625 0 0  1.4375 0 0  1.46875 0 0  1.5 0 0  0 0.03125 0  0.03125 0.03125 0  0.0625 0.03125 0  0.09375 0.03125 0  0.125 0.03125 0  0.15625 0.03125 0  0.1875 0.03125 0  0.21875 0.03125 0  0.25 0.03125 0  0.28125 0.03125 0  0.3125 0.03125 0  0.34375 0.03125 0  0.375 0.03125 0  0.40625 0.03125 0  0.4375 0.03125 0  0.46875 0.03125 0  0.5 0.03125 0  0.53125 0.03125 0  0.5625 0.03125 0  0.59375 0.03125 0  0.625 0.03125 0  0.65625 0.03125 0  0.6875 0.03125 0  0.71875 0.03125 0  0.75 0.03125 0  0.78125 0.03125 0  0.8125 0.03125 0  0.84375 0.03125 0  0.875 0.03125 0  0.90625 0.03125 0  0.9375 0.03125 0  0.96875 0.03125 0  1 0.03125 0  1.03125 0.03125 0  1.0625 0.03125 0  1.09375 0.03125 0  1.125 0.03125 0  1.15625 0.03125 0  1.1875 0.03125 0  1.21875 0.03125 0  1.25 0.03125 0  1.28125 0.03125 0  1.3125 0.03125 0  1.34375 0.03125 0  1.375 0.03125 0  1.40625 0.03125 0  1.4375 0.03125 0  1.46875 0.03125 0  1.5 0.03125 0  0 0.0625 0  0.03125 0.0625 0  0.0625 0.0625 0  0.09375 0.0625 0  0.125 0.0625 0  0.15625 0.0625 0  0.1875 0.0625 0  0.21875 0.0625 0  0.25 0.0625 0  0.28125 0.0625 0  0.3125 0.0625 0  0.34375 0.0625 0  0.375 0.0625 0  0.40625 0.0625 0  0.4375 0.0625 0  0.46875 0.0625 0  0.5 0.0625 0  0.53125 0.0625 0  0.5625 0.0625 0  0.59375 0.0625 0  0.625 0.0625 0  0.65625 0.0625 0  0.6875 0.0625 0  0.71875 0.0625 0  0.75 0.0625 0  0.78125 0.0625 0  0.8125 0.0625 0  0.84375 0.0625 0  0.875 0.0625 0  0.90625 0.0625 0  0.9375 0.0625 0  0.96875 0.0625 0  1 0.0625 0  1.03125 0.0625 0  1.0625 0.0625 0  1.09375 0.0625 0  1.125 0.0625 0  1.15625 0.0625 0  1.1875 0.0625 0  1.21875 0.0625 0  1.25 0.0625 0  1.28125 0.0625 0  1.3125 0.0625 0  1.34375 0.0625 0  1.375 0.0625 0  1.40625 0.0625 0  1.4375 0.0625 0  1.46875 0.0625 0  1.5 0.0625 0  0 0.09375 0  0.03125 0.09375 0  0.0625 0.09375 0  0.09375 0.09375 0  0.125 0.09375 0  0.15625 0.09375 0  0.1875 0.09375 0  0.21875 0.09375 0  0.25 0.09375 0  0.28125 0.09375 0  0.3125 0.09375 0  0.34375 0.09375 0  0.375 0.09375 0  0.40625 0.09375 0  0.4375 0.09375 0  0.46875 0.09375 0  0.5 0.09375 0  0.53125 0.09375 0  0.5625 0.09375 0  0.59375 0.09375 0  0.625 0.09375 0  0.65625 0.09375 0  0.6875 0.09375 0  0.71875 0.09375 0  0.75 0.09375 0  0.78125 0.09375 0  0.8125 0.09375 0  0.84375 0.09375 0  0.875 0.09375 0  0.90625 0.09375 0  0.9375 0.09375 0  0.96875 0.09375 0  1 0.09375 0  1.03125 0.09375 0  1.0625 0.09375 0  1.09375 0.09375 0  1.125 0.09375 0  1.15625 0.09375 0  1.1875 0.09375 0  1.21875 0.09375 0  1.25 0.09375 0  1.28125 0.09375 0  1.3125 0.09375 0  1.34375 0.09375 0  1.375 0.09375 0  1.40625 0.09375 0  1.4375 0.09375 0  1.46875 0.09375 0  1.5 0.09375 0  0 0.125 0  0.03125 0.125 0  0.0625 0.125 0  0.09375 0.125 0  0.125 0.125 0  0.15625 0.125 0  0.1875 0.125 0  0.21875 0.125 0  0.25 0.125 0  0.28125 0.125 0  0.3125 0.125 0  0.34375 0.125 0  0.375 0.125 0  0.40625 0.125 0  0.4375 0.125 0  0.46875 0.125 0  0.5 0.125 0  0.53125 0.125 0  0.5625 0.125 0  0.59375 0.125 0  0.625 0.125 0  0.65625 0.125 0  0.6875 0.125 0  0.71875 0.125 0  0.75 0.125 0  0.78125 0.125 0  0.8125 0.125 0  0.84375 0.125 0  0.875 0.125 0  0.90625 0.125 0  0.9375 0.125 0  0.96875 0.125 0  1 0.125 0  1.03125 0.125 0  1.0625 0.125 0  1.09375 0.125 0  1.125 0.125 0  1.15625 0.125 0  1.1875 0.125 0  1.21875 0.125 0  1.25 0.125 0  1.28125 0.125 0  1.3125 0.125 0  1.34375 0.125 0  1.375 0.125 0  1.40625 0.125 0  1.4375 0.125 0  1.46875 0.125 0  1.5 0.125 0  0 0.15625 0  0.03125 0.15625 0  0.0625 0.15625 0  0.09375 0.15625 0  0.125 0.15625 0  0.15625 0.15625 0  0.1875 0.15625 0  0.21875 0.15625 0  0.25 0.15625 0  0.28125 0.15625 0  0.3125 0.15625 0  0.34375 0.15625 0  0.375 0.15625 0  0.40625 0.15625 0  0.4375 0.15625 0  0.46875 0.15625 0  0.5 0.15625 0  0.53125 0.15625 0  0.5625 0.15625 0  0.59375 0.15625 0  0.625 0.15625 0  0.65625 0.15625 0  0.6875 0.15625 0  0.71875 0.15625 0  0.75 0.15625 0  0.78125 0.15625 0  0.8125 0.15625 0  0.84375 0.15625 0  0.875 0.15625 0  0.90625 0.15625 0  0.9375 0.15625 0  0.96875 0.15625 0  1 0.15625 0  1.03125 0.15625 0  1.0625 0.15625 0  1.09375 0.15625 0  1.125 0.15625 0  1.15625 0.15625 0  1.1875 0.15625 0  1.21875 0.15625 0  1.25 0.15625 0  1.28125 0.15625 0  1.3125 0.15625 0  1.34375 0.15625 0  1.375 0.15625 0  1.40625 0.15625 0  1.4375 0.15625 0  1.46875 0.15625 0  1.5 0.15625 0  0 0.1875 0  0.03125 0.1875 0  0.0625 0.1875 0  0.09375 0.1875 0  0.125 0.1875 0  0.15625 0.1875 0  0.1875 0.1875 0  0.21875 0.1875 0  0.25 0.1875 0  0.28125 0.1875 0  0.3125 0.1875 0  0.34375 0.1875 0  0.375 0.1875 0  0.40625 0.1875 0  0.4375 0.1875 0  0.46875 0.1875 0  0.5 0.1875 0  0.53125 0.1875 0  0.5625 0.1875 0  0.59375 0.1875 0  0.625 0.1875 0  0.65625 0.1875 0  0.6875 0.1875 0  0.71875 0.1875 0  0.75 0.1875 0  0.78125 0.1875 0  0.8125 0.1875 0  0.84375 0.1875 0  0.875 0.1875 0  0.90625 0.1875 0  0.9375 0.1875 0  0.96875 0.1875 0  1 0.1875 0  1.03125 0.1875 0  1.0625 0.1875 0  1.09375 0.1875 0  1.125 0.1875 0  1.15625 0.1875 0  1.1875 0.1875 0  1.21875 0.1875 0  1.25 0.1875 0  1.28125 0.1875 0  1.3125 0.1875 0  1.34375 0.1875 0  1.375 0.1875 0  1.40625 0.1875 0  1.4375 0.1875 0  1.46875 0.1875 0  1.5 0.1875 0  0 0.21875 0  0.03125 0.21875 0  0.0625 0.21875 0  0.09375 0.21875 0  0.125 0.21875 0  0.15625 0.21875 0  0.1875 0.21875 0  0.21875 0.21875 0  0.25 0.21875 0  0.28125 0.21875 0  0.3125 0.21875 0  0.34375 0.21875 0  0.375 0.21875 0  0.40625 0.21875 0  0.4375 0.21875 0  0.46875 0.21875 0  0.5 0.21875 0  0.53125 0.21875 0  0.5625 0.21875 0  0.59375 0.21875 0  0.625 0.21875 0  0.65625 0.21875 0  0.6875 0.21875 0  0.71875 0.21875 0  0.75 0.21875 0  0.78125 0.21875 0  0.8125 0.21875 0  0.84375 0.21875 0  0.875 0.21875 0  0.90625 0.21875 0  0.9375 0.21875 0  0.96875 0.21875 0  1 0.21875 0  1.03125 0.21875 0  1.0625 0.21875 0  1.09375 0.21875 0  1.125 0.21875 0  1.15625 0.21875 0  1.1875 0.21875 0  1.21875 0.21875 0  1.25 0.21875 0  1.28125 0.21875 0  1.3125 0.21875 0  1.34375 0.21875 0  1.375 0.21875 0  1.40625 0.21875 0  1.4375 0.21875 0  1.46875 0.21875 0  1.5 0.21875 0  0 0.25 0  0.03125 0.25 0  0.0625 0.25 0  0.09375 0.25 0  0.125 0.25 0  0.15625 0.25 0  0.1875 0.25 0  0.21875 0.25 0  0.25 0.25 0  0.28125 0.25 0  0.3125 0.25 0  0.34375 0.25 0  0.375 0.25 0  0.40625 0.25 0  0.4375 0.25 0  0.46875 0.25 0  0.5 0.25 0  0.53125 0.25 0  0.5625 0.25 0  0.59375 0.25 0  0.625 0.25 0  0.65625 0.25 0  0.6875 0.25 0  0.71875 0.25 0  0.75 0.25 0  0.78125 0.25 0  0.8125 0.25 0  0.84375 0.25 0  0.875 0.25 0  0.90625 0.25 0  0.9375 0.25 0  0.96875 0.25 0  1 0.25 0  1.03125 0.25 0  1.0625 0.25 0  1.09375 0.25 0  1.125 0.25 0  1.15625 0.25 0  1.1875 0.25 0  1.21875 0.25 0  1.25 0.25 0  1.28125 0.25 0  1.3125 0.25 0  1.34375 0.25 0  1.375 0.25 0  1.40625 0.25 0  1.4375 0.25 0  1.46875 0.25 0  1.5 0.25 0  0 0.28125 0  0.03125 0.28125 0  0.0625 0.28125 0  0.09375 0.28125 0  0.125 0.28125 0  0.15625 0.28125 0  0.1875 0.28125 0  0.21875 0.28125 0  0.25 0.28125 0  0.28125 0.28125 0  0.3125 0.28125 0  0.34375 0.28125 0  0.375 0.28125 0  0.40625 0.28125 0  0.4375 0.28125 0  0.46875 0.28125 0  0.5 0.28125 0  0.53125 0.28125 0  0.5625 0.28125 0  0.59375 0.28125 0  0.625 0.28125 0  0.65625 0.28125 0  0.6875 0.28125 0  0.71875 0.28125 0  0.75 0.28125 0  0.78125 0.28125 0  0.8125 0.28125 0  0.84375 0.28125 0  0.875 0.28125 0  0.90625 0.28125 0  0.9375 0.28125 0  0.96875 0.28125 0  1 0.28125 0  1.03125 0.28125 0  1.0625 0.28125 0  1.09375 0.28125 0  1.125 0.28125 0  1.15625 0.28125 0  1.1875 0.28125 0  1.21875 0.28125 0  1.25 0.28125 0  1.28125 0.28125 0  1.3125 0.28125 0  1.34375 0.28125 0  1.375 0.28125 0  1.40625 0.28125 0  1.4375 0.28125 0  1.46875 0.28125 0  1.5 0.28125 0  0 0.3125 0  0.03125 0.3125 0  0.0625 0.3125 0  0.09375 0.3125 0  0.125 0.3125 0  0.15625 0.3125 0  0.1875 0.3125 0  0.21875 0.3125 0  0.25 0.3125 0  0.28125 0.3125 0  0.3125 0.3125 0  0.34375 0.3125 0  0.375 0.3125 0  0.40625 0.3125 0  0.4375 0.3125 0  0.46875 0.3125 0  0.5 0.3125 0  0.53125 0.3125 0  0.5625 0.3125 0  0.59375 0.3125 0  0.625 0.3125 0  0.65625 0.3125 0  0.6875 0.3125 0  0.71875 0.3125 0  0.75 0.3125 0  0.78125 0.3125 0  0.8125 0.3125 0  0.84375 0.3125 0  0.875 0.3125 0  0.90625 0.3125 0  0.9375 0.3125 0  0.96875 0.3125 0  1 0.3125 0  1.03125 0.3125 0  1.0625 0.3125 0  1.09375 0.3125 0  1.125 0.3125 0  1.15625 0.3125 0  1.1875 0.3125 0  1.21875 0.3125 0  1.25 0.3125 0  1.28125 0.3125 0  1.3125 0.3125 0  1.34375 0.3125 0  1.375 0.3125 0  1.40625 0.3125 0  1.4375 0.3125 0  1.46875 0.3125 0  1.5 0.3125 0  0 0.34375 0  0.03125 0.34375 0  0.0625 0.34375 0  0.09375 0.34375 0  0.125 0.34375 0  0.15625 0.34375 0  0.1875 0.34375 0  0.21875 0.34375 0  0.25 0.34375 0  0.28125 0.34375 0  0.3125 0.34375 0  0.34375 0.34375 0  0.375 0.34375 0  0.40625 0.34375 0  0.4375 0.34375 0  0.46875 0.34375 0  0.5 0.34375 0  0.53125 0.34375 0  0.5625 0.34375 0  0.59375 0.34375 0  0.625 0.34375 0  0.65625 0.34375 0  0.6875 0.34375 0  0.71875 0.34375 0  0.75 0.34375 0  0.78125 0.34375 0  0.8125 0.34375 0  0.84375 0.34375 0  0.875 0.34375 0  0.90625 0.34375 0  0.9375 0.34375 0  0.96875 0.34375 0  1 0.34375 0  1.03125 0.34375 0  1.0625 0.34375 0  1.09375 0.34375 0  1.125 0.34375 0  1.15625 0.34375 0  1.1875 0.34375 0  1.21875 0.34375 0  1.25 0.34375 0  1.28125 0.34375 0  1.3125 0.34375 0  1.34375 0.34375 0  1.375 0.34375 0  1
[...]
<PointData  Vectors="f_17"> 
<DataArray  type="Float64"  Name="f_17"  NumberOfComponents="3" format="ascii">0.0000000000000000e+00 0.0000000000000000e+00 0.0000000000000000e+00  0.0000000000000000e+00 0.0000000000000000e+00 0.0000000000000000e+00  0.0000000000000000e+00 0.0000000000000000e+00 0.0000000000000000e+00  0.0000000000000000e+00 0.0000000000000000e+00 0.0000000000000000e+00  0.0000000000000000e+00 0.0000000000000000e+00 0.0000000000000000e+00  0.0000000000000000e+00 0.0000000000000000e+00 0.0000000000000000e+00  0.0000000000000000e+00 0.0000000000000000e+00 0.0000000000000000e+00  0.0000000000000000e+00 0.0000000000000000e+00 0.0000000000000000e+00  0.0000000000000000e+00 0.0000000000000000e+00 0.0000000000000000e+00  0.0000000000000000e+00 0.0000000000000000e+00 0.0000000000000000e+00  0.0000000000000000e+00 0.0000000000000000e+00 0.0000000000000000e+00  0.0000000000000000e+00 0.0000000000000000e+00 0.0000000000000000e+00  0.0000000000000000e+00 0.0000000000000000e+00 0.0000000000000000e+00  0.0000000000000000e+00 0.0000000000000000e+00 0.0000000000000000e+00  0.0000000000000000e+00 0.0000000000000000e+00 0.0000000000000000e+00  0.0000000000000000e+00 0.0000000000000000e+00 0.0000000000000000e+00  0.0000000000000000e+00 0.0000000000000000e+00 0.0000000000000000e+00  0.0000000000000000e+00 0.0000000000000000e+00 0.0000000000000000e+00  0.0000000000000000e+00 0.0000000000000000e+00 0.0000000000000000e+00  0.0000000000000000e+00 0.0000000000000000e+00 0.0000000000000000e+00  0.0000000000000000e+00 0.0000000000000000e+00 0.0000000000000000e+00  0.0000000000000000e+00 0.0000000000000000e+00 0.0000000000000000e+00  0.0000000000000000e+00 0.0000000000000000e+00 0.0000000000000000e+00  0.0000000000000000e+00 0.0000000000000000e+00 0.0000000000000000e+00  0.0000000000000000e+00 0.0000000000000000e+00 0.0000000000000000e+00  0.0000000000000000e+00 0.0000000000000000e+00 0.0000000000000000e+00  0.0000000000000000e+00 0.0000000000000000e+00 0.0000000000000000e+00  0.0000000000000000e+00 0.0000000000000000e+00 0.0000000000000000e+00  0.0000000000000000e+00 0.0000000000000000e+00 0.0000000000000000e+00  0.0000000000000000e+00 0.0000000000000000e+00 0.0000000000000000e+00  0.0000000000000000e+00 0.0000000000000000e+00 0.0000000000000000e+00  0.0000000000000000e+00 0.0000000000000000e+00 0.0000000000000000e+00  0.0000000000000000e+00 0.0000000000000000e+00 0.0000000000000000e+00  0.0000000000000000e+00 0.0000000000000000e+00 0.0000000000000000e+00  0.0000000000000000e+00 0.0000000000000000e+00 0.0000000000000000e+00  0.0000000000000000e+00 0.0000000000000000e+00 0.0000000000000000e+00  0.0000000000000000e+00 0.0000000000000000e+00 0.0000000000000000e+00  0.0000000000000000e+00 0.0000000000000000e+00 0.0000000000000000e+00  0.0000000000000000e+00 0.0000000000000000e+00 0.0000000000000000e+00  0.0000000000000000e+00 0.0000000000000000e+00 0.0000000000000000e+00  0.0000000000000000e+00 0.0000000000000000e+00 0.0000000000000000e+00  0.0000000000000000e+00 0.0000000000000000e+00 0.0000000000000000e+00  0.0000000000000000e+00 0.0000000000000000e+00 0.0000000000000000e+00  0.0000000000000000e+00 0.0000000000000000e+00 0.0000000000000000e+00  0.0000000000000000e+00 0.0000000000000000e+00 0.0000000000000000e+00  0.0000000000000000e+00 0.0000000000000000e+00 0.0000000000000000e+00  0.0000000000000000e+00 0.0000000000000000e+00 0.0000000000000000e+00  0.0000000000000000e+00 0.0000000000000000e+00 0.0000000000000000e+00  0.0000000000000000e+00 0.0000000000000000e+00 0.0000000000000000e+00  0.0000000000000000e+00 0.0000000000000000e+00 0.0000000000000000e+00  -2.4712761192130168e-08 1.6485530758896445e-08 0.0000000000000000e+00  -1.6372214141236716e-07 1.1835082819103213e-07 0.0000000000000000e+00  -1.0079149882683317e-07 -1.7064632693014799e-09 0.0000000000000000e+00  -3.0345311113422020e-07 -3.5272040938560746e-08 0.0000000000000000e+00  -3.0183969359964486e-07 -6.3036509489507861e-08 0.0000000000000000e+00  -3.0400893863153654e-07 -6.9769486378936941e-08 0.0000000000000000e+00  -3.0887235358537054e-07 -6.4425673836156027e-08 0.0000000000000000e+00  -3.0159904560359799e-07 -5.6301666680952633e-08 0.0000000000000000e+00  -2.9419946864520517e-07 -4.6764785787632601e-08 0.0000000000000000e+00  -2.8713108374868164e-07 -3.6981866193026921e-08 0.0000000000000000e+00  -2.8197012804689028e-07 -2.7421624861987272e-08 0.0000000000000000e+00  -2.8020451765029489e-07 -1.8214831912838378e-08 0.0000000000000000e+00  -2.8247246527767334e-07 -9.4306205994536770e-09 0.0000000000000000e+00  -2.8925884203820015e-07 -1.0700854765276235e-09 0.0000000000000000e+00  -3.0085580418585246e-07 6.9009712884606526e-09 0.0000000000000000e+00  -3.1743059681819184e-07 1.4524314865530073e-08 0.0000000000000000e+00  -3.3907245365583245e-07 2.1819773521709347e-08 0.0000000000000000e+00  -3.6578249321266544e-07 2.8751352828028119e-08 0.0000000000000000e+00  -3.9743660856931755e-07 3.5196008611532366e-08 0.0000000000000000e+00  -4.3371906420730453e-07 4.0924860718940171e-08 0.0000000000000000e+00  -4.7404192857658023e-07 4.5607171058575793e-08 0.0000000000000000e+00  -5.1747532143384865e-07 4.8843552060075865e-08 0.0000000000000000e+00  -5.6271220219037482e-07 5.0226145225407828e-08 0.0000000000000000e+00  -6.0809423035234874e-07 4.9413141639544546e-08 0.0000000000000000e+00  -6.5169556847979446e-07 4.6197981914818769e-08 0.0000000000000000e+00  -6.9147431340230006e-07 4.0552702239191765e-08 0.0000000000000000e+00  -7.2541999490453079e-07 3.2635399914328536e-08 0.0000000000000000e+00  -7.5175219130173807e-07 2.2756578599123828e-08 0.0000000000000000e+00  -7.6895419945233544e-07 1.1329630538210810e-08 0.0000000000000000e+00  -7.7600937087437757e-07 -1.2113697489098389e-09 0.0000000000000000e+00  -7.7204440148946614e-07 -1.4428737855813915e-08 0.0000000000000000e+00  -7.5704105995840792e-07 -2.8013409148526343e-08 0.0000000000000000e+00  -7.3021872592838397e-07 -4.1585878393243496e-08 0.0000000000000000e+00  -6.9319096157454903e-07 -5.5179337202573520e-08 0.0000000000000000e+00  -6.4323699949693200e-07 -6.8119130971920595e-08 0.0000000000000000e+00  -5.8707111958336452e-07 -8.1439309571526509e-08 0.0000000000000000e+00  -5.1234784353155962e-07 -9.2415223755161675e-08 0.0000000000000000e+00  -4.4635166032021986e-07 -1.0640444541741069e-07 0.0000000000000000e+00  -3.3560493019019363e-07 -1.1086223990794627e-07 0.0000000000000000e+00  -2.9221872789969023e-07 -1.3112932239936048e-07 0.0000000000000000e+00  -9.2718586188900634e-08 -1.1060710977971632e-07 0.0000000000000000e+00  -1.9275279815649864e-07 -1.6372189663293204e-07 0.0000000000000000e+00  3.1042543180227769e-07 -4.4721416220185249e-08 0.0000000000000000e+00  -4.0994357552609902e-07 -2.4985982633426291e-07 0.0000000000000000e+00  1.1433207564365936e-06 2.2523589890509223e-07 0.0000000000000000e+00  -2.4096801609845411e-06 -7.5919689804743040e-07 0.0000000000000000e+00  2.7062862060322067e-06 1.3659296206819149e-06 0.0000000000000000e+00  0.0000000000000000e+00 0.0000000000000000e+00 0.0000000000000000e+00  0.0000000000000000e+00 0.0000000000000000e+00 0.0000000000000000e+00  -1.2938138237231093e-06 6.8276862441898437e-07 0.0000000000000000e+00  7.3361842249864149e-07 -1.2590454380910119e-08 0.0000000000000000e+00  -1.5147876276374707e-07 1.2780613663952591e-07 0.0000000000000000e+00  -3.2417611566471712e-07 1.3758613856178296e-08 0.0000000000000000e+00  -3.4890577949380184e-07 -3.8791498769658069e-08 0.0000000000000000e+00  -4.2050755405404887e-07 -6.3835834239530154e-08 0.0000000000000000e+00  -4.3324895548082605e-07 -7.2363543807799793e-08 0.0000000000000000e+00  -4.3520212251740690e-07 -7.1350510081916752e-08 0.0000000000000000e+00  -4.3180605318857032e-07 -6.4398701387368211e-08 0.0000000000000000e+00  -4.2448252894396413e-07 -5.4020954774004390e-08 0.0000000000000000e+00  -4.1810875927571682e-07 -4.1584626483726836e-08 0.0000000000000000e+00  -4.1417700875155213e-07 -2.7989868465009361e-08 0.0000000000000000e+00  -4.1389624227731170e-07 -1.3831905654439455e-08 0.0000000000000000e+00  -4.1808305182527743e-07 5.2362229884836245e-10 0.0000000000000000e+00  -4.2717440289173089e-07 1.4861410371697276e-08 0.0000000000000000e+00  -4.4143615338231339e-07 2.9049584180351441e-08 0.0000000000000000e+00  -4.6099056273309037e-07 4.2969591360159732e-08 0.0000000000000000e+00  -4.8583483608822666e-07 5.6438324363736120e-08 0.0000000000000000e+00  -5.1581531486897869e-07 6.9133868226927551e-08 0.0000000000000000e+00  -5.5055874833679103e-07 8.0543785976341021e-08 0.0000000000000000e+00  -5.8938138918783311e-07 8.9958908370051028e-08 0.0000000000000000e+00  -6.3120515141321098e-07 9.6529815679125059e-08 0.0000000000000000e+00  -6.7451511606041563e-07 9.9384967487854038e-08 0.0000000000000000e+00  -7.1739587965223272e-07 9.7785651877368497e-08 0.0000000000000000e+00  -7.5764581689128928e-07 9.1274937682582677e-08 0.0000000000000000e+00  -7.9297674285138795e-07 7.9774705771757288e-08 0.0000000000000000e+00  -8.2120763032940456e-07 6.3604456790192277e-08 0.0000000000000000e+00  -8.4050396451518187e-07 4.3415046187465408e-08 0.0000000000000000e+00  -8.4941441956529261e-07 2.0076896585775632e-08 0.0000000000000000e+00  -8.4711384922656189e-07 -5.4751524972729617e-09 0.0000000000000000e+00  -8.3298662594116508e-07 -3.2320049696891361e-08 0.0000000000000000e+00  -8.0736770470547473e-07 -5.9723592603494764e-08 0.0000000000000000e+00  -7.6979048410861537e-07 -8.6953327074796946e-08 0.0000000000000000e+00  -7.2232720480094150e-07 -1.1374421585689517e-07 0.0000000000000000e+00  -6.6252040512097146e-07 -1.3918235262387382e-07 0.0000000000000000e+00  -5.9775269701260603e-07 -1.6398414810355502e-07 0.0000000000000000e+00  -5.1582338335641104e-07 -1.8526557462599870e-07 0.0000000000000000e+00  -4.4515294662422313e-07 -2.0758864033637191e-07 0.0000000000000000e+00  -3.3234886755103856e-07 -2.1880403518631315e-07 0.0000000000000000e+00  -2.9107775829617264e-07 -2.4122280585813807e-07 0.0000000000000000e+00  -9.9110357398551068e-08 -2.2256367599965597e-07 0.0000000000000000e+00  -2.1165679307227707e-07 -2.6471794528977750e-07 0.0000000000000000e+00  2.6350732750602177e-07 -1.4758572731412926e-07 0.0000000000000000e+00  -4.7811867043046076e-07 -3.1588211372994661e-07 0.0000000000000000e+00  9.6605180684197832e-07 1.2564775173941170e-07 0.0000000000000000e+00  -2.4350721980825941e-06 -6.3525933865044504e-07 0.0000000000000000e+00  2.6709714318160588e-06 1.3966685395771117e-06 0.0000000000000000e+00  0.0000000000000000e+00 0.0000000000000000e+00 0.0000000000000000e+00  0.0000000000000000e+00 0.0000000000000000e+00 0.0000000000000000e+00  -2.3442621321340832e-06 1.1704669197454786e-06 0.0000000000000000e+00  1.6866276916454773e-06 -1.0200492996751738e-07 0.0000000000000000e+00  -4.1114647827321292e-07 2.9778037930607086e-07 0.0000000000000000e+00  -3.3344677795783535e-08 4.7732866350865311e-08 0.0000000000000000e+00  -1.8999280121643719e-07 1.7782629178304643e-08 0.0000000000000000e+00  -2.6103481471833079e-07 -3.6222617105354375e-08 0.0000000000000000e+00  -2.9137842607127831e-07 -5.7966656719266618e-08 0.0000000000000000e+00  -3.3115632920886925e-07 -6.5634285540461183e-08 0.0000000000000000e+00  -3.5450419021144352e-07 -6.3137095832681276e-08 0.0000000000000000e+00  -3.7193301268426624e-07 -5.4002156516143185e-08 0.0000000000000000e+00  -3.8592892920910776e-07 -4.0693409059520397e-08 0.0000000000000000e+00  -3.9792162840575375e-07 -2.4812782998245304e-08 0.0000000000000000e+00  -4.0995014486085656e-07 -7.4556415923649515e-09 0.0000000000000000e+00  -4.2311860565880170e-07 1.0666597374344419e-08 0.0000000000000000e+00  -4.3827066386031891e-07 2.9105882087914970e-08 0.0000000000000000e+00  -4.5600476325497007e-07 4.7579924327984070e-08 0.0000000000000000e+00  -4.7671589805605081e-07 6.5867317754232244e-08 0.0000000000000000e+00  -5.0065150262209908e-07 8.3686705799565064e-08 0.0000000000000000e+00  -5.2789186519974031e-07 1.0057472940685435e-07 0.0000000000000000e+00  -5.5828758210452383e-07 1.1579057513381993e-07 0.0000000000000000e+00  -5.9135925737852269e-07 1.2828886015070507e-07 0.0000000000000000e+00  -6.2619630862900718e-07 1.3679570993717523e-07 0.0000000000000000e+00  -6.6140383197294996e-07 1.3999262346047849e-07 0.0000000000000000e+00  -6.9515033347364787e-07 1.3676846548406659e-07 0.0000000000000000e+00  -7.2532110354819513e-07 1.2646417731536690e-07 0.0000000000000000e+00  -7.4977704253233506e-07 1.0902846223337748e-07 0.0000000000000000e+00  -7.6660240255426324e-07 8.5037281685949736e-08 0.0000000000000000e+00  -7.7437652788280847e-07 5.5572984742089104e-08 0.0000000000000000e+00  -7.7219697866358461e-07 2.2026758227877160e-08 0.0000000000000000e+00  -7.5989371300871912e-07 -1.4145213859504795e-08 0.0000000000000000e+00  -7.3753590896582969e-07 -5.1563179676163258e-08 0.0000000000000000e+00  -7.0616431036101882e-07 -8.9132216348561386e-08 0.0000000000000000e+00  -6.6592695924301779e-07 -1.2584913872071286e-07 0.0000000000000000e+00  -6.1955641835887436e-07 -1.6125633622981830e-07 0.0000000000000000e+00  -5.6503420974835127e-07 -1.9427036276517745e-07 0.0000000000000000e+00  -5.1046454113673212e-07 -2.2544140229432292e-07 0.0000000000000000e+00  -4.4381288860145167e-07 -2.5169295022537721e-07 0.0000000000000000e+00  -3.9451499694164951e-07 -2.7722443945020278e-07 0.0000000000000000e+00  -3.0886484377440958e-07 -2.8987397003063484e-07 0.0000000000000000e+00  -3.0159958599883584e-07 -3.1070456915838823e-07 0.0000000000000000e+00  -1.5057092840235487e-07 -2.8997296501827082e-07 0.0000000000000000e+00  -3.0693326529757887e-07 -3.2353704958766292e-07 0.0000000000000000e+00  1.0978066803870577e-07 -2.1059481545013232e-07 0.0000000000000000e+00  -6.6338924246205945e-07 -3.5851893584423293e-07 0.0000000000000000e+00  6.9651396550392030e-07 3.3344111124612228e-08 0.0000000000000000e+00  -2.6297533606939457e-06 -6.1178335898980585e-07 0.0000000000000000e+00  2.2935246167716043e-06 1.1694167530023790e-06 0.0000000000000000e+00  0.0000000000000000e+00 0.0000000000000000e+00 0.0000000000000000e+00  0.0000000000000000e+00 0.0000000000000000e+00 0.0000000000000000e+00  -2.5978992720785810e-06 1.2294681454292094e-06 0.0000000000000000e+00  2.3025399308934336e-06 -1.2083662589132785e-07 0.0000000000000000e+00  -7.0676859445557112e-07 3.8881462806113598e-07 0.0000000000000000e+00  2.4353754810210518e-07 6.9832030749967037e-08 0.0000000000000000e+00  -1.9639400552866386e-07 9.8928163462639992e-08 0.0000000000000000e+00  -1.5258160002030956e-07 1.4151288585457501e-08 0.0000000000000000e+00  -2.1335966301230116e-07 -1.0935601267198826e-08 0.0000000000000000e+00  -2.6069766418114895e-07 -3.1429743864218946e-08 0.0000000000000000e+00  -2.9212404595038934e-07 -3.6950200888797483e-08 0.0000000000000000e+00  -3.2186140108600365e-07 -3.3755439381763815e-08 0.0000000000000000e+00  -3.4534891985793860e-07 -2.4055792218163689e-08 0.0000000000000000e+00  -3.6574936957971125e-07 -9.9203362040489384e-09 0.0000000000000000e+00  -3.8448602212146907e-07 7.0938454024223331e-09 0.0000000000000000e+00  -4.0251886122410637e-07 2.5909549982462888e-08 0.0000000000000000e+00  -4.2078583379171770e-07 4.5774749132043040e-08 0.0000000000000000e+00  -4.3990512365661742e-07 6.6193010843790385e-08 0.0000000000000000e+00  -4.6035608760063357e-07 8.6793084619326406e-08 0.0000000000000000e+00  -4.8250319258456314e-07 1.0717315218447967e-07 0.0000000000000000e+00  -5.0658332793846679e-07 1.2672281862930293e-07 0.0000000000000000e+00  -5.3263784456426767e-07 1.4446460785201228e-07 0.0000000000000000e+00  -5.6037838117676550e-07 1.5898598267703807e-07 0.0000000000000000e+00  -5.8903948212447219e-07 1.6852879179437780e-07 0.0000000000000000e+00  -6.1728886629454634e-07 1.7125686974950977e-07 0.0000000000000000e+00  -6.4327918654947285e-07 1.6564222634024619e-07 0.0000000000000000e+00  -6.6485813135808226e-07 1.5084167300263080e-07 0.0000000000000000e+00  -6.7992338804347701e-07 1.2692412474481908e-07 0.0000000000000000e+00  -6.8675724798840048e-07 9.4871267596887169e-08 0.0000000000000000e+00  -6.8434754122528370e-07 5.6360344024795527e-08 0.0000000000000000e+00  -6.7237662493628028e-07 1.3436218888183085e-08 0.0000000000000000e+00  -6.5138586032659545e-07 -3.1848196359718969e-08 0.0000000000000000e+00  -6.2214359091623023e-07 -7.7643657414131895e-08 0.0000000000000000e+00  -5.8638846247068920e-07 -1.2252935074694716e-07 0.0000000000000000e+00  -5.4473960128871195e-07 -1.6529900037189575e-07 0.0000000000000000e+00  -5.0049392048888188e-07 -2.0536024094059118e-07 0.0000000000000000e+00  -4.5163901849246657e-07 -2.4154203813451901e-07 0.0000000000000000e+00  -4.0697571678236366e-07 -2.7424112681539680e-07 0.0000000000000000e+00  -3.5349826987572312e-07 -3.0034350145616181e-07 0.0000000000000000e+00  -3.2238501420296512e-07 -3.2363206152600011e-07 0.0000000000000000e+00  -2.5613936495186618e-07 -3.3247375620372294e-07 0.0000000000000000e+00  -2.7504350901397231e-07 -3.4651652783081757e-07 0.0000000000000000e+00  -1.4459751568570853e-07 -3.2008892824543619e-07 0.0000000000000000e+00  -3.3345577262004907e-07 -3.4250178473735887e-07 0.0000000000000000e+00  7.4572937471156001e-08 -2.3330201673411997e-07 0.0000000000000000e+00  -7.3194134400914667e-07 -3.6308748778852726e-07 0.0000000000000000e+00  6.5045481051619737e-07 -1.5780153973319341e-08 0.0000000000000000e+00  -2.6792838497259044e-06 -5.7984633773672702e-07 0.0000000000000000e+00  2.2768159767696255e-06 9.9841528993190260e-07 0.0000000000000000e+00  0.0000000000000000e+00 0.0000000000000000e+00 0.0000000000000000e+00  0.0000000000000000e+00 0.0000000000000000e+00 0.0000000000000000e+00  -2.5448342141450938e-06 1.1321118992321588e-06 0.0000000000000000e+00  2.5536053362660644e-06 -9.2313573851451231e-08 0.0000000000000000e+00  -8.3862691234805792e-07 4.0124002171419995e-07 0.0000000000000000e+00  4.6640597617395481e-07 9.1813683816148252e-08 0.0000000000000000e+00  -2.2996270936752898e-07 1.6228582169254156e-07 0.0000000000000000e+00  -2.3230577026743450e-08 5.9353878702962997e-08 0.0000000000000000e+00  -1.4749199700295402e-07 4.1081714185497785e-08 0.0000000000000000e+00  -1.7280532335112239e-07 9.2072955719461010e-09 0.0000000000000000e+00  -2.1344967087330771e-07 -1.3905250170619344e-09 0.0000000000000000e+00  -2.4966878112697861e-07 -4.3341384074830369e-09 0.0000000000000000e+00  -2.7930991045677074e-07 1.2273376522250103e-09 0.0000000000000000e+00  -3.0644875933999955e-07 1.2442670913804186e-08 0.0000000000000000e+00  -3.3068621492953521e-07 2.7705049620775662e-08 0.0000000000000000e+00  -3.5317796403362347e-07 4.5672654708422038e-08 0.0000000000000000e+00  -3.7465117659842000e-07 6.5363745533238518e-08 0.0000000000000000e+00  -3.9564205396263616e-07 8.6120738860345496e-08 0.0000000000000000e+00  -4.1664708485721717e-07 1.0747146012488373e-07 0.0000000000000000e+00  -4.3809208049477693e-07 1.2895972618408781e-07 0.0000000000000000e+00  -4.6035841426281822e-07 1.4989982958809286e-07 0.0000000000000000e+00  -4.8369352377612828e-07 1.6912735727507686e-07 0.0000000000000000e+00  -5.0802349719654600e-07 1.8485418790150255e-07 0.0000000000000000e+00  -5.3272287432050527e-07 1.9475716729756670e-07 0.0000000000000000e+00  -5.5645270730505665e-07 1.9636089857798253e-07 0.0000000000000000e+00  -5.7720920672383253e-07 1.8762793714153791e-07 0.0000000000000000e+00  -5.9262648404912451e-07 1.6753641310814196e-07 0.0000000000000000e+00  -6.0049171896327862e-07 1.3640302637721257e-07 0.0000000000000000e+00  -5.9922305122948017e-07 9.5828967261052315e-08 0.0000000000000000e+00  -5.8825225470995852e-07 4.8312076546552192e-08 0.0000000000000000e+00  -5.6794914256211516e-07 -3.2838431556135680e-09 0.0000000000000000e+00  -5.3967345955137998e-07 -5.6245730350828744e-08 0.0000000000000000e+00  -5.0496254566912057e-07 -1.0829343710255858e-07 0.0000000000000000e+00  -4.6623573819865609e-07 -1.5779605577294573e-07 0.0000000000000000e+00  -4.2451734739145459e-07 -2.0349826101956199e-07 0.0000000000000000e+00  -3.8347626349267612e-07 -2.4484351152468163e-07 