<?xml version="1.0"?>
<VTKFile type="UnstructuredGrid"  version="0.1"  >
<UnstructuredGrid>
<Piece  NumberOfPoints="1617" NumberOfCells="3072">
<Points>
<DataArray  type="Float64"  NumberOfComponents="3"  format="ascii">0 0 0  0.03125 0 0  0.0625 0 0  0.09375 0 0  0.125 0 0  0.15625 0 0  0.1875 0 0  0.21875 0 0  0.25 0 0  0.28125 0 0  0.3125 0 0  0.34375 0 0  0.375 0 0  0.40625 0 0  0.4375 0 0  0.46875 0 0  0.5 0 0  0.53125 0 0  0.5625 0 0  0.59375 0 0  0.625 0 0  0.65625 0 0  0.6875 0 0  0.71875 0 0  0.75 0 0  0.78125 0 0  0.8125 0 0  0.84375 0 0  0.875 0 0  0.90625 0 0  0.9375 0 0  0.96875 0 0  1 0 0  1.03125 0 0  1.0625 0 0  1.09375 0 0  1.125 0 0  1.15625 0 0  1.1875 0 0  1.21875 0 0  1.25 0 0  1.28125 0 0  1.3125 0 0  1.34375 0 0  1.375 0 0  1.40625 0 0  1.4375 0 0  1.46875 0 0  1.5 0 0  0 0.03125 0  0.03125 0.03125 0  0.0625 0.03125 0  0.09375 0.03125 0  0.125 0.03125 0  0.15625 0.03125 0  0.1875 0.03125 0  0.21875 0.03125 0  0.25 0.03125 0  0.28125 0.03125 0  0.3125 0.03125 0  0.34375 0.03125 0  0.375 0.03125 0  0.40625 0.03125 0  0.4375 0.03125 0  0.46875 0.03125 0  0.5 0.03125 0  0.53125 0.03125 0  0.5625 0.03125 0  0.59375 0.03125 0  0.625 0.03125 0  0.65625 0.03125 0  0.6875 0.03125 0  0.71875 0.03125 0  0.75 0.03125 0  0.78125 0.03125 0  0.8125 0.03125 0  0.84375 0.03125 0  0.875 0.03125 0  0.90625 0.03125 0  0.9375 0.03125 0  0.96875 0.03125 0  1 0.03125 0  1.03125 0.03125 0  1.0625 0.03125 0  1.09375 0.03125 0  1.125 0.03125 0  1.15625 0.03125 0  1.1875 0.03125 0  1.21875 0.03125 0  1.25 0.03125 0  1.28125 0.03125 0  1.3125 0.03125 0  1.34375 0.03125 0  1.375 0.03125 0  1.40625 0.03125 0  1.4375 0.03125 0  1.46875 0.03125 0  1.5 0.03125 0  0 0.0625 0  0.03125 0.0625 0  0.0625 0.0625 0  0.09375 0.0625 0  0.125 0.0625 0  0.15625 0.0625 0  0.1875 0.0625 0  0.21875 0.0625 0  0.25 0.0625 0  0.28125 0.0625 0  0.3125 0.0625 0  0.34375 0.0625 0  0.375 0.0625 0  0.40625 0.0625 0  0.4375 0.0625 0  0.46875 0.0625 0  0.5 0.0625 0  0.53125 0.0625 0  0.5625 0.0625 0  0.59375 0.0625 0  0.625 0.0625 0  0.65625 0.0625 0  0.6875 0.0625 0  0.71875 0.0625 0  0.75 0.0625 0  0.78125 0.0625 0  0.8125 0.0625 0  0.84375 0.0625 0  0.875 0.0625 0  0.90625 0.0625 0  0.9375 0.0625 0  0.96875 0.0625 0  1 0.0625 0  1.03125 0.0625 0  1.0625 0.0625 0  1.09375 0.0625 0  1.125 0.0625 0  1.15625 0.0625 0  1.1875 0.0625 0  1.21875 0.0625 0  1.25 0.0625 0  1.28125 0.0625 0  1.3125 0.0625 0  1.34375 0.0625 0  1.375 0.0625 0  1.40625 0.0625 0  1.4375 0.0625 0  1.46875 0.0625 0  1.5 0.0625 0  0 0.09375 0  0.03125 0.09375 0  0.0625 0.09375 0  0.09375 0.09375 0  0.125 0.09375 0  0.15625 0.09375 0  0.1875 0.09375 0  0.21875 0.09375 0  0.25 0.09375 0  0.28125 0.09375 0  0.3125 0.09375 0  0.34375 0.09375 0  0.375 0.09375 0  0.40625 0.09375 0  0.4375 0.09375 0  0.46875 0.09375 0  0.5 0.09375 0  0.53125 0.09375 0  0.5625 0.09375 0  0.59375 0.09375 0  0.625 0.09375 0  0.65625 0.09375 0  0.6875 0.09375 0  0.71875 0.09375 0  0.75 0.09375 0  0.78125 0.09375 0  0.8125 0.09375 0  0.84375 0.09375 0  0.875 0.09375 0  0.90625 0.09375 0  0.9375 0.09375 0  0.96875 0.09375 0  1 0.09375 0  1.03125 0.09375 0  1.0625 0.09375 0  1.09375 0.09375 0  1.125 0.09375 0  1.15625 0.09375 0  1.1875 0.09375 0  1.21875 0.09375 0  1.25 0.09375 0  1.28125 0.09375 0  1.3125 0.09375 0  1.34375 0.09375 0  1.375 0.09375 0  1.40625 0.09375 0  1.4375 0.09375 0  1.46875 0.09375 0  1.5 0.09375 0  0 0.125 0  0.03125 0.125 0  0.0625 0.125 0  0.09375 0.125 0  0.125 0.125 0  0.15625 0.125 0  0.1875 0.125 0  0.21875 0.125 0  0.25 0.125 0  0.28125 0.125 0  0.3125 0.125 0  0.34375 0.125 0  0.375 0.125 0  0.40625 0.125 0  0.4375 0.125 0  0.46875 0.125 0  0.5 0.125 0  0.53125 0.125 0  0.5625 0.125 0  0.59375 0.125 0  0.625 0.125 0  0.65625 0.125 0  0.6875 0.125 0  0.71875 0.125 0  0.75 0.125 0  0.78125 0.125 0  0.8125 0.125 0  0.84375 0.125 0  0.875 0.125 0  0.90625 0.125 0  0.9375 0.125 0  0.96875 0.125 0  1 0.125 0  1.03125 0.125 0  1.0625 0.125 0  1.09375 0.125 0  1.125 0.125 0  1.15625 0.125 0  1.1875 0.125 0  1.21875 0.125 0  1.25 0.125 0  1.28125 0.125 0  1.3125 0.125 0  1.34375 0.125 0  1.375 0.125 0  1.40625 0.125 0  1.4375 0.125 0  1.46875 0.125 0  1.5 0.125 0  0 0.15625 0  0.03125 0.15625 0  0.0625 0.15625 0  0.09375 0.15625 0  0.125 0.15625 0  0.15625 0.15625 0  0.1875 0.15625 0  0.21875 0.15625 0  0.25 0.15625 0  0.28125 0.15625 0  0.3125 0.15625 0  0.34375 0.15625 0  0.375 0.15625 0  0.40625 0.15625 0  0.4375 0.15625 0  0.46875 0.15625 0  0.5 0.15625 0  0.53125 0.15625 0  0.5625 0.15625 0  0.59375 0.15625 0  0.625 0.15625 0  0.65625 0.15625 0  0.6875 0.15625 0  0.71875 0.15625 0  0.75 0.15625 0  0.78125 0.15625 0  0.8125 0.15625 0  0.84375 0.15625 0  0.875 0.15625 0  0.90625 0.15625 0  0.9375 0.15625 0  0.96875 0.15625 0  1 0.15625 0  1.03125 0.15625 0  1.0625 0.15625 0  1.09375 0.15625 0  1.125 0.15625 0  1.15625 0.15625 0  1.1875 0.15625 0  1.21875 0.15625 0  1.25 0.15625 0  1.28125 0.15625 0  1.3125 0.15625 0  1.34375 0.15625 0  1.375 0.15625 0  1.40625 0.15625 0  1.4375 0.15625 0  1.46875 0.15625 0  1.5 0.15625 0  0 0.1875 0  0.03125 0.1875 0  0.0625 0.1875 0  0.09375 0.1875 0  0.125 0.1875 0  0.15625 0.1875 0  0.1875 0.1875 0  0.21875 0.1875 0  0.25 0.1875 0  0.28125 0.1875 0  0.3125 0.1875 0  0.34375 0.1875 0  0.375 0.1875 0  0.40625 0.1875 0  0.4375 0.1875 0  0.46875 0.1875 0  0.5 0.1875 0  0.53125 0.1875 0  0.5625 0.1875 0  0.59375 0.1875 0  0.625 0.1875 0  0.65625 0.1875 0  0.6875 0.1875 0  0.71875 0.1875 0  0.75 0.1875 0  0.78125 0.1875 0  0.8125 0.1875 0  0.84375 0.1875 0  0.875 0.1875 0  0.90625 0.1875 0  0.9375 0.1875 0  0.96875 0.1875 0  1 0.1875 0  1.03125 0.1875 0  1.0625 0.1875 0  1.09375 0.1875 0  1.125 0.1875 0  1.15625 0.1875 0  1.1875 0.1875 0  1.21875 0.1875 0  1.25 0.1875 0  1.28125 0.1875 0  1.3125 0.1875 0  1.34375 0.1875 0  1.375 0.1875 0  1.40625 0.1875 0  1.4375 0.1875 0  1.46875 0.1875 0  1.5 0.1875 0  0 0.21875 0  0.03125 0.21875 0  0.0625 0.21875 0  0.09375 0.21875 0  0.125 0.21875 0  0.15625 0.21875 0  0.1875 0.21875 0  0.21875 0.21875 0  0.25 0.21875 0  0.28125 0.21875 0  0.3125 0.21875 0  0.34375 0.21875 0  0.375 0.21875 0  0.40625 0.21875 0  0.4375 0.21875 0  0.46875 0.21875 0  0.5 0.21875 0  0.53125 0.21875 0  0.5625 0.21875 0  0.59375 0.21875 0  0.625 0.21875 0  0.65625 0.21875 0  0.6875 0.21875 0  0.71875 0.21875 0  0.75 0.21875 0  0.78125 0.21875 0  0.8125 0.21875 0  0.84375 0.21875 0  0.875 0.21875 0  0.90625 0.21875 0  0.9375 0.21875 0  0.96875 0.21875 0  1 0.21875 0  1.03125 0.21875 0  1.0625 0.21875 0  1.09375 0.21875 0  1.125 0.21875 0  1.15625 0.21875 0  1.1875 0.21875 0  1.21875 0.21875 0  1.25 0.21875 0  1.28125 0.21875 0  1.3125 0.21875 0  1.34375 0.21875 0  1.375 0.21875 0  1.40625 0.21875 0  1.4375 0.21875 0  1.46875 0.21875 0  1.5 0.21875 0  0 0.25 0  0.03125 0.25 0  0.0625 0.25 0  0.09375 0.25 0  0.125 0.25 0  0.15625 0.25 0  0.1875 0.25 0  0.21875 0.25 0  0.25 0.25 0  0.28125 0.25 0  0.3125 0.25 0  0.34375 0.25 0  0.375 0.25 0  0.40625 0.25 0  0.4375 0.25 0  0.46875 0.25 0  0.5 0.25 0  0.53125 0.25 0  0.5625 0.25 0  0.59375 0.25 0  0.625 0.25 0  0.65625 0.25 0  0.6875 0.25 0  0.71875 0.25 0  0.75 0.25 0  0.78125 0.25 0  0.8125 0.25 0  0.84375 0.25 0  0.875 0.25 0  0.90625 0.25 0  0.9375 0.25 0  0.96875 0.25 0  1 0.25 0  1.03125 0.25 0  1.0625 0.25 0  1.09375 0.25 0  1.125 0.25 0  1.15625 0.25 0  1.1875 0.25 0  1.21875 0.25 0  1.25 0.25 0  1.28125 0.25 0  1.3125 0.25 0  1.34375 0.25 0  1.375 0.25 0  1.40625 0.25 0  1.4375 0.25 0  1.46875 0.25 0  1.5 0.25 0  0 0.28125 0  0.03125 0.28125 0  0.0625 0.28125 0  0.09375 0.28125 0  0.125 0.28125 0  0.15625 0.28125 0  0.1875 0.28125 0  0.21875 0.28125 0  0.25 0.28125 0  0.28125 0.28125 0  0.3125 0.28125 0  0.34375 0.28125 0  0.375 0.28125 0  0.40625 0.28125 0  0.4375 0.28125 0  0.46875 0.28125 0  0.5 0.28125 0  0.53125 0.28125 0  0.5625 0.28125 0  0.59375 0.28125 0  0.625 0.28125 0  0.65625 0.28125 0  0.6875 0.28125 0  0.71875 0.28125 0  0.75 0.28125 0  0.78125 0.28125 0  0.8125 0.28125 0  0.84375 0.28125 0  0.875 0.28125 0  0.90625 0.28125 0  0.9375 0.28125 0  0.96875 0.28125 0  1 0.28125 0  1.03125 0.28125 0  1.0625 0.28125 0  1.09375 0.28125 0  1.125 0.28125 0  1.15625 0.28125 0  1.1875 0.28125 0  1.21875 0.28125 0  1.25 0.28125 0  1.28125 0.28125 0  1.3125 0.28125 0  1.34375 0.28125 0  1.375 0.28125 0  1.40625 0.28125 0  1.4375 0.28125 0  1.46875 0.28125 0  1.5 0.28125 0  0 0.3125 0  0.03125 0.3125 0  0.0625 0.3125 0  0.09375 0.3125 0  0.125 0.3125 0  0.15625 0.3125 0  0.1875 0.3125 0  0.21875 0.3125 0  0.25 0.3125 0  0.28125 0.3125 0  0.3125 0.3125 0  0.34375 0.3125 0  0.375 0.3125 0  0.40625 0.3125 0  0.4375 0.3125 0  0.46875 0.3125 0  0.5 0.3125 0  0.53125 0.3125 0  0.5625 0.3125 0  0.59375 0.3125 0  0.625 0.3125 0  0.65625 0.3125 0  0.6875 0.3125 0  0.71875 0.3125 0  0.75 0.3125 0  0.78125 0.3125 0  0.8125 0.3125 0  0.84375 0.3125 0  0.875 0.3125 0  0.90625 0.3125 0  0.9375 0.3125 0  0.96875 0.3125 0  1 0.3125 0  1.03125 0.3125 0  1.0625 0.3125 0  1.09375 0.3125 0  1.125 0.3125 0  1.15625 0.3125 0  1.1875 0.3125 0  1.21875 0.3125 0  1.25 0.3125 0  1.28125 0.3125 0  1.3125 0.3125 0  1.34375 0.3125 0  1.375 0.3125 0  1.40625 0.3125 0  1.4375 0.3125 0  1.46875 0.3125 0  1.5 0.3125 0  0 0.34375 0  0.03125 0.34375 0  0.0625 0.34375 0  0.09375 0.34375 0  0.125 0.34375 0  0.15625 0.34375 0  0.1875 0.34375 0  0.21875 0.34375 0  0.25 0.34375 0  0.28125 0.34375 0  0.3125 0.34375 0  0.34375 0.34375 0  0.375 0.34375 0  0.40625 0.34375 0  0.4375 0.34375 0  0.46875 0.34375 0  0.5 0.34375 0  0.53125 0.34375 0  0.5625 0.34375 0  0.59375 0.34375 0  0.625 0.34375 0  0.65625 0.34375 0  0.6875 0.34375 0  0.71875 0.34375 0  0.75 0.34375 0  0.78125 0.34375 0  0.8125 0.34375 0  0.84375 0.34375 0  0.875 0.34375 0  0.90625 0.34375 0  0.9375 0.34375 0  0.96875 0.34375 0  1 0.34375 0  1.03125 0.34375 0  1.0625 0.34375 0  1.09375 0.34375 0  1.125 0.34375 0  1.15625 0.34375 0  1.1875 0.34375 0  1.21875 0.34375 0  1.25 0.34375 0  1.28125 0.34375 0  1.3125 0.34375 0  1.34375 0.34375 0  1.375 0.34375 0  1
[...]
<PointData  Vectors="f_17"> 
<DataArray  type="Float64"  Name="f_17"  NumberOfComponents="3" format="ascii">0.0000000000000000e+00 0.0000000000000000e+00 0.0000000000000000e+00  0.0000000000000000e+00 0.0000000000000000e+00 0.0000000000000000e+00  0.0000000000000000e+00 0.0000000000000000e+00 0.0000000000000000e+00  0.0000000000000000e+00 0.0000000000000000e+00 0.0000000000000000e+00  0.0000000000000000e+00 0.0000000000000000e+00 0.0000000000000000e+00  0.0000000000000000e+00 0.0000000000000000e+00 0.0000000000000000e+00  0.0000000000000000e+00 0.0000000000000000e+00 0.0000000000000000e+00  0.0000000000000000e+00 0.0000000000000000e+00 0.0000000000000000e+00  0.0000000000000000e+00 0.0000000000000000e+00 0.0000000000000000e+00  0.0000000000000000e+00 0.0000000000000000e+00 0.0000000000000000e+00  0.0000000000000000e+00 0.0000000000000000e+00 0.0000000000000000e+00  0.0000000000000000e+00 0.0000000000000000e+00 0.0000000000000000e+00  0.0000000000000000e+00 0.0000000000000000e+00 0.0000000000000000e+00  0.0000000000000000e+00 0.0000000000000000e+00 0.0000000000000000e+00  0.0000000000000000e+00 0.0000000000000000e+00 0.0000000000000000e+00  0.0000000000000000e+00 0.0000000000000000e+00 0.0000000000000000e+00  0.0000000000000000e+00 0.0000000000000000e+00 0.0000000000000000e+00  0.0000000000000000e+00 0.0000000000000000e+00 0.0000000000000000e+00  0.0000000000000000e+00 0.0000000000000000e+00 0.0000000000000000e+00  0.0000000000000000e+00 0.0000000000000000e+00 0.0000000000000000e+00  0.0000000000000000e+00 0.0000000000000000e+00 0.0000000000000000e+00  0.0000000000000000e+00 0.0000000000000000e+00 0.0000000000000000e+00  0.0000000000000000e+00 0.0000000000000000e+00 0.0000000000000000e+00  0.0000000000000000e+00 0.0000000000000000e+00 0.0000000000000000e+00  0.0000000000000000e+00 0.0000000000000000e+00 0.0000000000000000e+00  0.0000000000000000e+00 0.0000000000000000e+00 0.0000000000000000e+00  0.0000000000000000e+00 0.0000000000000000e+00 0.0000000000000000e+00  0.0000000000000000e+00 0.0000000000000000e+00 0.0000000000000000e+00  0.0000000000000000e+00 0.0000000000000000e+00 0.0000000000000000e+00  0.0000000000000000e+00 0.0000000000000000e+00 0.0000000000000000e+00  0.0000000000000000e+00 0.0000000000000000e+00 0.0000000000000000e+00  0.0000000000000000e+00 0.0000000000000000e+00 0.0000000000000000e+00  0.0000000000000000e+00 0.0000000000000000e+00 0.0000000000000000e+00  0.0000000000000000e+00 0.0000000000000000e+00 0.0000000000000000e+00  0.0000000000000000e+00 0.0000000000000000e+00 0.0000000000000000e+00  0.0000000000000000e+00 0.0000000000000000e+00 0.0000000000000000e+00  0.0000000000000000e+00 0.0000000000000000e+00 0.0000000000000000e+00  0.0000000000000000e+00 0.0000000000000000e+00 0.0000000000000000e+00  0.0000000000000000e+00 0.0000000000000000e+00 0.0000000000000000e+00  0.0000000000000000e+00 0.0000000000000000e+00 0.0000000000000000e+00  0.0000000000000000e+00 0.0000000000000000e+00 0.0000000000000000e+00  0.0000000000000000e+00 0.0000000000000000e+00 0.0000000000000000e+00  0.0000000000000000e+00 0.0000000000000000e+00 0.0000000000000000e+00  0.0000000000000000e+00 0.0000000000000000e+00 0.0000000000000000e+00  0.0000000000000000e+00 0.0000000000000000e+00 0.0000000000000000e+00  0.0000000000000000e+00 0.0000000000000000e+00 0.0000000000000000e+00  0.0000000000000000e+00 0.0000000000000000e+00 0.0000000000000000e+00  0.0000000000000000e+00 0.0000000000000000e+00 0.0000000000000000e+00  0.0000000000000000e+00 0.0000000000000000e+00 0.0000000000000000e+00  0.0000000000000000e+00 0.0000000000000000e+00 0.0000000000000000e+00  1.4896354919878329e-07 3.2753365381895289e-08 0.0000000000000000e+00  -9.9322545381781016e-08 1.0379988773184097e-07 0.0000000000000000e+00  -8.2528884927565809e-08 -3.1670121618589552e-08 0.0000000000000000e+00  -2.9192686877862727e-07 -7.3377697254704974e-08 0.0000000000000000e+00  -2.7564043408509445e-07 -1.0017145060236193e-07 0.0000000000000000e+00  -2.5753837073499810e-07 -1.0283090876745068e-07 0.0000000000000000e+00  -2.4200480026690995e-07 -9.3114557596081640e-08 0.0000000000000000e+00  -2.1582600108385602e-07 -8.1229444270654689e-08 0.0000000000000000e+00  -1.9146256007467013e-07 -6.8768410621900420e-08 0.0000000000000000e+00  -1.6920525004227930e-07 -5.6839106398262277e-08 0.0000000000000000e+00  -1.5023667276536063e-07 -4.5746274221787881e-08 0.0000000000000000e+00  -1.3563714789082311e-07 -3.5458968834012730e-08 0.0000000000000000e+00  -1.2571031842171925e-07 -2.5918903718664817e-08 0.0000000000000000e+00  -1.2069139254153916e-07 -1.7034890266023576e-08 0.0000000000000000e+00  -1.2069811270561809e-07 -8.7062204214292928e-09 0.0000000000000000e+00  -1.2578374648976616e-07 -8.3911286999618295e-10 0.0000000000000000e+00  -1.3597372140203941e-07 6.6332319434094923e-09 0.0000000000000000e+00  -1.5125179058386983e-07 1.3723543491443231e-08 0.0000000000000000e+00  -1.7152436335589658e-07 2.0363459647912458e-08 0.0000000000000000e+00  -1.9655861829221485e-07 2.6386099001120165e-08 0.0000000000000000e+00  -2.2590674560275448e-07 3.1528196167843919e-08 0.0000000000000000e+00  -2.5883821643367112e-07 3.5458159841070431e-08 0.0000000000000000e+00  -2.9430092359229927e-07 3.7828387110801585e-08 0.0000000000000000e+00  -3.3093575519329390e-07 3.8340698562508203e-08 0.0000000000000000e+00  -3.6714128553715928e-07 3.6807383472794481e-08 0.0000000000000000e+00  -4.0120005554456998e-07 3.3189503087974819e-08 0.0000000000000000e+00  -4.3139869089795241e-07 2.7603876526019319e-08 0.0000000000000000e+00  -4.5620102543968012e-07 2.0293685337649907e-08 0.0000000000000000e+00  -4.7426279093490263e-07 1.1586815998284559e-08 0.0000000000000000e+00  -4.8465650569430420e-07 1.8230778760052176e-09 0.0000000000000000e+00  -4.8651381029787961e-07 -8.6540955144277487e-09 0.0000000000000000e+00  -4.7973949913088985e-07 -1.9623590358256846e-08 0.0000000000000000e+00  -4.6340743991828776e-07 -3.0784889163916091e-08 0.0000000000000000e+00  -4.3891443250170422e-07 -4.2242460204638279e-08 0.0000000000000000e+00  -4.0327431769304678e-07 -5.3390786647396509e-08 0.0000000000000000e+00  -3.6282957213689033e-07 -6.5338286714512172e-08 0.0000000000000000e+00  -3.0482584116499986e-07 -7.5452463956598345e-08 0.0000000000000000e+00  -2.5582774210700334e-07 -8.9198082293362392e-08 0.0000000000000000e+00  -1.6178595240770197e-07 -9.4170175574670908e-08 0.0000000000000000e+00  -1.3322474783368134e-07 -1.1577452612946008e-07 0.0000000000000000e+00  5.3174070284196295e-08 -9.7500584267817770e-08 0.0000000000000000e+00  -5.4662808095799515e-08 -1.5322564989354387e-07 0.0000000000000000e+00  4.3976020082500638e-07 -3.6989759246078075e-08 0.0000000000000000e+00  -2.7893647368701254e-07 -2.4167285809842185e-07 0.0000000000000000e+00  1.2326345405396019e-06 2.3529757777173018e-07 0.0000000000000000e+00  -2.4206622565396085e-06 -7.3671787039582019e-07 0.0000000000000000e+00  2.6330171818946337e-06 1.3904053662800535e-06 0.0000000000000000e+00  0.0000000000000000e+00 0.0000000000000000e+00 0.0000000000000000e+00  0.0000000000000000e+00 0.0000000000000000e+00 0.0000000000000000e+00  -1.1402826603861997e-06 7.1704190855189909e-07 0.0000000000000000e+00  8.4059950831118568e-07 -1.5881770387055562e-08 0.0000000000000000e+00  -1.0999060495288848e-07 9.2279767893029991e-08 0.0000000000000000e+00  -3.0656880302215835e-07 -4.0264864083294348e-08 0.0000000000000000e+00  -3.1907070501321067e-07 -9.6585933892510593e-08 0.0000000000000000e+00  -3.7094823663322481e-07 -1.1850953508591302e-07 0.0000000000000000e+00  -3.6196353826621162e-07 -1.2178479972134026e-07 0.0000000000000000e+00  -3.4229288703435981e-07 -1.1540193611055348e-07 0.0000000000000000e+00  -3.1867897102788905e-07 -1.0392743252529687e-07 0.0000000000000000e+00  -2.9280381667199274e-07 -9.0093657707567767e-08 0.0000000000000000e+00  -2.6934114897959301e-07 -7.5177889571873852e-08 0.0000000000000000e+00  -2.4943683452745567e-07 -5.9893495884693251e-08 0.0000000000000000e+00  -2.3395321562582179e-07 -4.4645656224401412e-08 0.0000000000000000e+00  -2.2341910366731302e-07 -2.9639635032401338e-08 0.0000000000000000e+00  -2.1805556057716290e-07 -1.4961142702747522e-08 0.0000000000000000e+00  -2.1797933012003847e-07 -6.3248557149390118e-10 0.0000000000000000e+00  -2.2322487685044383e-07 1.3330038898950505e-08 0.0000000000000000e+00  -2.3376108173861255e-07 2.6849523551103441e-08 0.0000000000000000e+00  -2.4946841480726823e-07 3.9722003239016956e-08 0.0000000000000000e+00  -2.7007649775558319e-07 5.1567501191569007e-08 0.0000000000000000e+00  -2.9507977084259209e-07 6.1820072365289712e-08 0.0000000000000000e+00  -3.2365653922434914e-07 6.9773360811628037e-08 0.0000000000000000e+00  -3.5462153995393185e-07 7.4681723343101661e-08 0.0000000000000000e+00  -3.8644651296167438e-07 7.5895371287118601e-08 0.0000000000000000e+00  -4.1734745020634165e-07 7.2991617145863768e-08 0.0000000000000000e+00  -4.4544872546909054e-07 6.5861308401559410e-08 0.0000000000000000e+00  -4.6893856667178316e-07 5.4727403889070203e-08 0.0000000000000000e+00  -4.8627382583475100e-07 4.0089075545745025e-08 0.0000000000000000e+00  -4.9619230496506026e-07 2.2628071333526299e-08 0.0000000000000000e+00  -4.9794309960799431e-07 3.0747205392425940e-09 0.0000000000000000e+00  -4.9087188259189889e-07 -1.7850987963835698e-08 0.0000000000000000e+00  -4.7516901472602324e-07 -3.9599019987731273e-08 0.0000000000000000e+00  -4.5013733201708343e-07 -6.1598007367472650e-08 0.0000000000000000e+00  -4.1753419689015374e-07 -8.3723055687669034e-08 0.0000000000000000e+00  -3.7453203592897124e-07 -1.0518637666822363e-07 0.0000000000000000e+00  -3.2803338089129527e-07 -1.2682993885380460e-07 0.0000000000000000e+00  -2.6532966291878172e-07 -1.4590061546180701e-07 0.0000000000000000e+00  -2.1405320566858438e-07 -1.6710499329891331e-07 0.0000000000000000e+00  -1.2024927651072908e-07 -1.7841329325546826e-07 0.0000000000000000e+00  -9.6161651051552519e-08 -2.0218291829514834e-07 0.0000000000000000e+00  7.9776759037241471e-08 -1.8594340016148125e-07 0.0000000000000000e+00  -4.4815928035995743e-08 -2.3090053238297460e-07 0.0000000000000000e+00  4.1405589165081397e-07 -1.1571762883044077e-07 0.0000000000000000e+00  -3.3817757167669198e-07 -2.8218126700191127e-07 0.0000000000000000e+00  1.0389269017963448e-06 1.6480883255869854e-07 0.0000000000000000e+00  -2.4740703613971989e-06 -5.7885332007583438e-07 0.0000000000000000e+00  2.5320467197944532e-06 1.4567001411725422e-06 0.0000000000000000e+00  0.0000000000000000e+00 0.0000000000000000e+00 0.0000000000000000e+00  0.0000000000000000e+00 0.0000000000000000e+00 0.0000000000000000e+00  -2.1820166823878447e-06 1.1881525380001801e-06 0.0000000000000000e+00  1.8153753668916293e-06 -1.0628252657232273e-07 0.0000000000000000e+00  -3.4593800021094475e-07 2.5884029962003016e-07 0.0000000000000000e+00  1.0587345224893101e-09 -1.4500835285147462e-08 0.0000000000000000e+00  -1.4410545288254126e-07 -5.3879008230736941e-08 0.0000000000000000e+00  -2.0141762408545744e-07 -1.0823744228552011e-07 0.0000000000000000e+00  -2.1455855211462910e-07 -1.2609896346016639e-07 0.0000000000000000e+00  -2.3599479019390167e-07 -1.2836173391247954e-07 0.0000000000000000e+00  -2.4133788060157720e-07 -1.2065268253691039e-07 0.0000000000000000e+00  -2.4164557601388477e-07 -1.0715243760632466e-07 0.0000000000000000e+00  -2.3949060271696330e-07 -9.0508599019116350e-08 0.0000000000000000e+00  -2.3616135548273740e-07 -7.2253950792518923e-08 0.0000000000000000e+00  -2.3347795699867389e-07 -5.3324612283336324e-08 0.0000000000000000e+00  -2.3233300627003221e-07 -3.4255896205074028e-08 0.0000000000000000e+00  -2.3339448643967068e-07 -1.5328257679619012e-08 0.0000000000000000e+00  -2.3713235142482460e-07 3.3330433319865686e-09 0.0000000000000000e+00  -2.4386444665281353e-07 2.1661602412915331e-08 0.0000000000000000e+00  -2.5381645168565112e-07 3.9540634721804181e-08 0.0000000000000000e+00  -2.6710908372645820e-07 5.6690595850450594e-08 0.0000000000000000e+00  -2.8370453010470889e-07 7.2577499852713904e-08 0.0000000000000000e+00  -3.0331502652633590e-07 8.6379999559895058e-08 0.0000000000000000e+00  -3.2530615839979720e-07 9.7048030072000593e-08 0.0000000000000000e+00  -3.4863871186355873e-07 1.0345882006982927e-07 0.0000000000000000e+00  -3.7189782198839700e-07 1.0463598935329568e-07 0.0000000000000000e+00  -3.9341351097581250e-07 9.9964923134517376e-08 0.0000000000000000e+00  -4.1147623436925626e-07 8.9331604752878103e-08 0.0000000000000000e+00  -4.2453896975224931e-07 7.3143399033877665e-08 0.0000000000000000e+00  -4.3144988748274163e-07 5.2227619220449930e-08 0.0000000000000000e+00  -4.3145109185307886e-07 2.7666036797719257e-08 0.0000000000000000e+00  -4.2438470986114555e-07 5.8709984577638800e-10 0.0000000000000000e+00  -4.1020903840666298e-07 -2.7943882785049095e-08 0.0000000000000000e+00  -3.8974675840146100e-07 -5.7111705614763289e-08 0.0000000000000000e+00  -3.6284814375489570e-07 -8.6148901410766468e-08 0.0000000000000000e+00  -3.3187803011690043e-07 -1.1479130591469477e-07 0.0000000000000000e+00  -2.9441465318535166e-07 -1.4211535739129364e-07 0.0000000000000000e+00  -2.5808176828641837e-07 -1.6880847673966640e-07 0.0000000000000000e+00  -2.1037821929432371e-07 -1.9191308026073366e-07 0.0000000000000000e+00  -1.8007361498779699e-07 -2.1571874235052025e-07 0.0000000000000000e+00  -1.1310943831249390e-07 -2.2808573551519070e-07 0.0000000000000000e+00  -1.2320110378712596e-07 -2.4993495760716433e-07 0.0000000000000000e+00  1.0673801916984202e-08 -2.3112474376530583e-07 0.0000000000000000e+00  -1.6062013695928285e-07 -2.6651424849308713e-07 0.0000000000000000e+00  2.3499826076644124e-07 -1.5404967745654017e-07 0.0000000000000000e+00  -5.5603512597829425e-07 -2.9840048782286667e-07 0.0000000000000000e+00  7.3170405676024512e-07 9.9278919831967549e-08 0.0000000000000000e+00  -2.7027302676661543e-06 -5.3159233337948045e-07 0.0000000000000000e+00  2.1410956292778029e-06 1.2423772437627054e-06 0.0000000000000000e+00  0.0000000000000000e+00 0.0000000000000000e+00 0.0000000000000000e+00  0.0000000000000000e+00 0.0000000000000000e+00 0.0000000000000000e+00  -2.4322300345713052e-06 1.2279988486685472e-06 0.0000000000000000e+00  2.4330861047670621e-06 -1.3561681423605210e-07 0.0000000000000000e+00  -6.3619200247418253e-07 3.4370453854108389e-07 0.0000000000000000e+00  2.8194702495491139e-07 2.5574669236151364e-09 0.0000000000000000e+00  -1.4519300480898397e-07 1.9033132801293361e-08 0.0000000000000000e+00  -9.1974042676235007e-08 -6.9519988624114733e-08 0.0000000000000000e+00  -1.3888864192394265e-07 -9.2985631941784324e-08 0.0000000000000000e+00  -1.7156762462505052e-07 -1.0919411007708177e-07 0.0000000000000000e+00  -1.8807913981182981e-07 -1.0978843182060822e-07 0.0000000000000000e+00  -2.0320047891379141e-07 -1.0202403261953748e-07 0.0000000000000000e+00  -2.1254428519777669e-07 -8.8593670847314347e-08 0.0000000000000000e+00  -2.1925424653515749e-07 -7.1673055611743735e-08 0.0000000000000000e+00  -2.2465835231168785e-07 -5.2754159726646475e-08 0.0000000000000000e+00  -2.2960135988963995e-07 -3.2769204356139747e-08 0.0000000000000000e+00  -2.3491381719430314e-07 -1.2296185855816258e-08 0.0000000000000000e+00  -2.4113144323865400e-07 8.3533085910021058e-09 0.0000000000000000e+00  -2.4868499995480323e-07 2.9003938483921033e-08 0.0000000000000000e+00  -2.5793344296869200e-07 4.9469528994121979e-08 0.0000000000000000e+00  -2.6916176103147944e-07 6.9385169420676954e-08 0.0000000000000000e+00  -2.8252550873717096e-07 8.8053298575527743e-08 0.0000000000000000e+00  -2.9792936095144403e-07 1.0436799535324225e-07 0.0000000000000000e+00  -3.1488795351893057e-07 1.1687974438246481e-07 0.0000000000000000e+00  -3.3243319751415522e-07 1.2402196080781277e-07 0.0000000000000000e+00  -3.4914586532324049e-07 1.2444758348235882e-07 0.0000000000000000e+00  -3.6332674188638270e-07 1.1736147214223081e-07 0.0000000000000000e+00  -3.7329909417385440e-07 1.0272359502899546e-07 0.0000000000000000e+00  -3.7768895470354351e-07 8.1254705011898547e-08 0.0000000000000000e+00  -3.7570287120639778e-07 5.4252347302131143e-08 0.0000000000000000e+00  -3.6709530534796046e-07 2.3314253922217343e-08 0.0000000000000000e+00  -3.5233382385486687e-07 -9.9662492288600914e-09 0.0000000000000000e+00  -3.3198875345875524e-07 -4.4166224741780122e-08 0.0000000000000000e+00  -3.0750418923819294e-07 -7.8228931038971714e-08 0.0000000000000000e+00  -2.7914631104141030e-07 -1.1123879260312920e-07 0.0000000000000000e+00  -2.4981661880520488e-07 -1.4282394740964552e-07 0.0000000000000000e+00  -2.1710738435328696e-07 -1.7197385806804747e-07 0.0000000000000000e+00  -1.8938431166576852e-07 -1.9919625456492418e-07 0.0000000000000000e+00  -1.5327277253202615e-07 -2.2143807528133726e-07 0.0000000000000000e+00  -1.3942907581105015e-07 -2.4247732083461868e-07 0.0000000000000000e+00  -9.0223924012456986e-08 -2.5056359311153259e-07 0.0000000000000000e+00  -1.2515107492523797e-07 -2.6503658309385246e-07 0.0000000000000000e+00  -1.1124852999545904e-08 -2.3965651979818931e-07 0.0000000000000000e+00  -2.1480578904038981e-07 -2.6270673919822649e-07 0.0000000000000000e+00  1.7172106792743261e-07 -1.5267299318456841e-07 0.0000000000000000e+00  -6.5216244258479229e-07 -2.7832826659002382e-07 0.0000000000000000e+00  6.6139906797504465e-07 7.3595038883876456e-08 0.0000000000000000e+00  -2.7674942140096025e-06 -4.8161371021077297e-07 0.0000000000000000e+00  2.1208499060351130e-06 1.0809438014535331e-06 0.0000000000000000e+00  0.0000000000000000e+00 0.0000000000000000e+00 0.0000000000000000e+00  0.0000000000000000e+00 0.0000000000000000e+00 0.0000000000000000e+00  -2.3807022122311628e-06 1.1166815321581539e-06 0.0000000000000000e+00  2.6803053723535918e-06 -1.1988452192963899e-07 0.0000000000000000e+00  -7.7103510751719809e-07 3.4771393857796285e-07 0.0000000000000000e+00  5.0100270456339657e-07 1.9005138725927192e-08 0.0000000000000000e+00  -1.8224267974547714e-07 7.6367464250013779e-08 0.0000000000000000e+00  3.1228404276766569e-08 -3.2317491100183740e-08 0.0000000000000000e+00  -8.1397002649718930e-08 -5.0919605769855076e-08 0.0000000000000000e+00  -9.5455622684532810e-08 -7.9965942954176253e-08 0.0000000000000000e+00  -1.2432833924752109e-07 -8.6451060686799344e-08 0.0000000000000000e+00  -1.4885710916734149e-07 -8.5154880792662536e-08 0.0000000000000000e+00  -1.6692303887367337e-07 -7.5900825469004366e-08 0.0000000000000000e+00  -1.8261285920610388e-07 -6.1803301458947671e-08 0.0000000000000000e+00  -1.9550209411499560e-07 -4.4511944215958981e-08 0.0000000000000000e+00  -2.0670286415913457e-07 -2.5277687815882989e-08 0.0000000000000000e+00  -2.1690027579693916e-07 -4.9255427862260353e-09 0.0000000000000000e+00  -2.2659820017669156e-07 1.6079987705481197e-08 0.0000000000000000e+00  -2.3627916009475193e-07 3.7487694473016371e-08 0.0000000000000000e+00  -2.4638380918816923e-07 5.9095145907920181e-08 0.0000000000000000e+00  -2.5734927456701330e-07 8.0513667460651270e-08 0.0000000000000000e+00  -2.6953517525287161e-07 1.0092561131542315e-07 0.0000000000000000e+00  -2.8305384622554397e-07 1.1893110697838045e-07 0.0000000000000000e+00  -2.9755467197058299e-07 1.3260467866663424e-07 0.0000000000000000e+00  -3.1206424012747553e-07 1.3982055381700053e-07 0.0000000000000000e+00  -3.2501474121103939e-07 1.3877076872820439e-07 0.0000000000000000e+00  -3.3450018948294476e-07 1.2847813973000655e-07 0.0000000000000000e+00  -3.3872589109765764e-07 1.0908616485725589e-07 0.0000000000000000e+00  -3.3641941559795199e-07 8.1817371315767775e-08 0.0000000000000000e+00  -3.2716516747771406e-07 4.8640031016379801e-08 0.0000000000000000e+00  -3.1131325080299378e-07 1.1815922800220334e-08 0.0000000000000000e+00  -2.9004675886094205e-07 -2.6537467570593483e-08 0.0000000000000000e+00  -2.6460885142290184e-07 -6.4668370773118059e-08 0.0000000000000000e+00  -2.3705019710320447e-07 -1.0137286682222773e-07 0.0000000000000000e+00  -2.0800043541037216e-07 -1.3571208390020592e-07 0.0000000000000000e+00  -1.8072865581095974e-07 -1.6734354209