<?xml version="1.0"?>
<VTKFile type="UnstructuredGrid"  version="0.1"  >
<UnstructuredGrid>
<Piece  NumberOfPoints="1617" NumberOfCells="3072">
<Points>
<DataArray  type="Float64"  NumberOfComponents="3"  format="ascii">0 0 0  0.03125 0 0  0.0625 0 0  0.09375 0 0  0.125 0 0  0.15625 0 0  0.1875 0 0  0.21875 0 0  0.25 0 0  0.28125 0 0  0.3125 0 0  0.34375 0 0  0.375 0 0  0.40625 0 0  0.4375 0 0  0.46875 0 0  0.5 0 0  0.53125 0 0  0.5625 0 0  0.59375 0 0  0.625 0 0  0.65625 0 0  0.6875 0 0  0.71875 0 0  0.75 0 0  0.78125 0 0  0.8125 0 0  0.84375 0 0  0.875 0 0  0.90625 0 0  0.9375 0 0  0.96875 0 0  1 0 0  1.03125 0 0  1.0625 0 0  1.09375 0 0  1.125 0 0  1.15625 0 0  1.1875 0 0  1.21875 0 0  1.25 0 0  1.28125 0 0  1.3125 0 0  1.34375 0 0  1.375 0 0  1.40625 0 0  1.4375 0 0  1.46875 0 0  1.5 0 0  0 0.03125 0  0.03125 0.03125 0  0.0625 0.03125 0  0.09375 0.03125 0  0.125 0.03125 0  0.15625 0.03125 0  0.1875 0.03125 0  0.21875 0.03125 0  0.25 0.03125 0  0.28125 0.03125 0  0.3125 0.03125 0  0.34375 0.03125 0  0.375 0.03125 0  0.40625 0.03125 0  0.4375 0.03125 0  0.46875 0.03125 0  0.5 0.03125 0  0.53125 0.03125 0  0.5625 0.03125 0  0.59375 0.03125 0  0.625 0.03125 0  0.65625 0.03125 0  0.6875 0.03125 0  0.71875 0.03125 0  0.75 0.03125 0  0.78125 0.03125 0  0.8125 0.03125 0  0.84375 0.03125 0  0.875 0.03125 0  0.90625 0.03125 0  0.9375 0.03125 0  0.96875 0.03125 0  1 0.03125 0  1.03125 0.03125 0  1.0625 0.03125 0  1.09375 0.03125 0  1.125 0.03125 0  1.15625 0.03125 0  1.1875 0.03125 0  1.21875 0.03125 0  1.25 0.03125 0  1.28125 0.03125 0  1.3125 0.03125 0  1.34375 0.03125 0  1.375 0.03125 0  1.40625 0.03125 0  1.4375 0.03125 0  1.46875 0.03125 0  1.5 0.03125 0  0 0.0625 0  0.03125 0.0625 0  0.0625 0.0625 0  0.09375 0.0625 0  0.125 0.0625 0  0.15625 0.0625 0  0.1875 0.0625 0  0.21875 0.0625 0  0.25 0.0625 0  0.28125 0.0625 0  0.3125 0.0625 0  0.34375 0.0625 0  0.375 0.0625 0  0.40625 0.0625 0  0.4375 0.0625 0  0.46875 0.0625 0  0.5 0.0625 0  0.53125 0.0625 0  0.5625 0.0625 0  0.59375 0.0625 0  0.625 0.0625 0  0.65625 0.0625 0  0.6875 0.0625 0  0.71875 0.0625 0  0.75 0.0625 0  0.78125 0.0625 0  0.8125 0.0625 0  0.84375 0.0625 0  0.875 0.0625 0  0.90625 0.0625 0  0.9375 0.0625 0  0.96875 0.0625 0  1 0.0625 0  1.03125 0.0625 0  1.0625 0.0625 0  1.09375 0.0625 0  1.125 0.0625 0  1.15625 0.0625 0  1.1875 0.0625 0  1.21875 0.0625 0  1.25 0.0625 0  1.28125 0.0625 0  1.3125 0.0625 0  1.34375 0.0625 0  1.375 0.0625 0  1.40625 0.0625 0  1.4375 0.0625 0  1.46875 0.0625 0  1.5 0.0625 0  0 0.09375 0  0.03125 0.09375 0  0.0625 0.09375 0  0.09375 0.09375 0  0.125 0.09375 0  0.15625 0.09375 0  0.1875 0.09375 0  0.21875 0.09375 0  0.25 0.09375 0  0.28125 0.09375 0  0.3125 0.09375 0  0.34375 0.09375 0  0.375 0.09375 0  0.40625 0.09375 0  0.4375 0.09375 0  0.46875 0.09375 0  0.5 0.09375 0  0.53125 0.09375 0  0.5625 0.09375 0  0.59375 0.09375 0  0.625 0.09375 0  0.65625 0.09375 0  0.6875 0.09375 0  0.71875 0.09375 0  0.75 0.09375 0  0.78125 0.09375 0  0.8125 0.09375 0  0.84375 0.09375 0  0.875 0.09375 0  0.90625 0.09375 0  0.9375 0.09375 0  0.96875 0.09375 0  1 0.09375 0  1.03125 0.09375 0  1.0625 0.09375 0  1.09375 0.09375 0  1.125 0.09375 0  1.15625 0.09375 0  1.1875 0.09375 0  1.21875 0.09375 0  1.25 0.09375 0  1.28125 0.09375 0  1.3125 0.09375 0  1.34375 0.09375 0  1.375 0.09375 0  1.40625 0.09375 0  1.4375 0.09375 0  1.46875 0.09375 0  1.5 0.09375 0  0 0.125 0  0.03125 0.125 0  0.0625 0.125 0  0.09375 0.125 0  0.125 0.125 0  0.15625 0.125 0  0.1875 0.125 0  0.21875 0.125 0  0.25 0.125 0  0.28125 0.125 0  0.3125 0.125 0  0.34375 0.125 0  0.375 0.125 0  0.40625 0.125 0  0.4375 0.125 0  0.46875 0.125 0  0.5 0.125 0  0.53125 0.125 0  0.5625 0.125 0  0.59375 0.125 0  0.625 0.125 0  0.65625 0.125 0  0.6875 0.125 0  0.71875 0.125 0  0.75 0.125 0  0.78125 0.125 0  0.8125 0.125 0  0.84375 0.125 0  0.875 0.125 0  0.90625 0.125 0  0.9375 0.125 0  0.96875 0.125 0  1 0.125 0  1.03125 0.125 0  1.0625 0.125 0  1.09375 0.125 0  1.125 0.125 0  1.15625 0.125 0  1.1875 0.125 0  1.21875 0.125 0  1.25 0.125 0  1.28125 0.125 0  1.3125 0.125 0  1.34375 0.125 0  1.375 0.125 0  1.40625 0.125 0  1.4375 0.125 0  1.46875 0.125 0  1.5 0.125 0  0 0.15625 0  0.03125 0.15625 0  0.0625 0.15625 0  0.09375 0.15625 0  0.125 0.15625 0  0.15625 0.15625 0  0.1875 0.15625 0  0.21875 0.15625 0  0.25 0.15625 0  0.28125 0.15625 0  0.3125 0.15625 0  0.34375 0.15625 0  0.375 0.15625 0  0.40625 0.15625 0  0.4375 0.15625 0  0.46875 0.15625 0  0.5 0.15625 0  0.53125 0.15625 0  0.5625 0.15625 0  0.59375 0.15625 0  0.625 0.15625 0  0.65625 0.15625 0  0.6875 0.15625 0  0.71875 0.15625 0  0.75 0.15625 0  0.78125 0.15625 0  0.8125 0.15625 0  0.84375 0.15625 0  0.875 0.15625 0  0.90625 0.15625 0  0.9375 0.15625 0  0.96875 0.15625 0  1 0.15625 0  1.03125 0.15625 0  1.0625 0.15625 0  1.09375 0.15625 0  1.125 0.15625 0  1.15625 0.15625 0  1.1875 0.15625 0  1.21875 0.15625 0  1.25 0.15625 0  1.28125 0.15625 0  1.3125 0.15625 0  1.34375 0.15625 0  1.375 0.15625 0  1.40625 0.15625 0  1.4375 0.15625 0  1.46875 0.15625 0  1.5 0.15625 0  0 0.1875 0  0.03125 0.1875 0  0.0625 0.1875 0  0.09375 0.1875 0  0.125 0.1875 0  0.15625 0.1875 0  0.1875 0.1875 0  0.21875 0.1875 0  0.25 0.1875 0  0.28125 0.1875 0  0.3125 0.1875 0  0.34375 0.1875 0  0.375 0.1875 0  0.40625 0.1875 0  0.4375 0.1875 0  0.46875 0.1875 0  0.5 0.1875 0  0.53125 0.1875 0  0.5625 0.1875 0  0.59375 0.1875 0  0.625 0.1875 0  0.65625 0.1875 0  0.6875 0.1875 0  0.71875 0.1875 0  0.75 0.1875 0  0.78125 0.1875 0  0.8125 0.1875 0  0.84375 0.1875 0  0.875 0.1875 0  0.90625 0.1875 0  0.9375 0.1875 0  0.96875 0.1875 0  1 0.1875 0  1.03125 0.1875 0  1.0625 0.1875 0  1.09375 0.1875 0  1.125 0.1875 0  1.15625 0.1875 0  1.1875 0.1875 0  1.21875 0.1875 0  1.25 0.1875 0  1.28125 0.1875 0  1.3125 0.1875 0  1.34375 0.1875 0  1.375 0.1875 0  1.40625 0.1875 0  1.4375 0.1875 0  1.46875 0.1875 0  1.5 0.1875 0  0 0.21875 0  0.03125 0.21875 0  0.0625 0.21875 0  0.09375 0.21875 0  0.125 0.21875 0  0.15625 0.21875 0  0.1875 0.21875 0  0.21875 0.21875 0  0.25 0.21875 0  0.28125 0.21875 0  0.3125 0.21875 0  0.34375 0.21875 0  0.375 0.21875 0  0.40625 0.21875 0  0.4375 0.21875 0  0.46875 0.21875 0  0.5 0.21875 0  0.53125 0.21875 0  0.5625 0.21875 0  0.59375 0.21875 0  0.625 0.21875 0  0.65625 0.21875 0  0.6875 0.21875 0  0.71875 0.21875 0  0.75 0.21875 0  0.78125 0.21875 0  0.8125 0.21875 0  0.84375 0.21875 0  0.875 0.21875 0  0.90625 0.21875 0  0.9375 0.21875 0  0.96875 0.21875 0  1 0.21875 0  1.03125 0.21875 0  1.0625 0.21875 0  1.09375 0.21875 0  1.125 0.21875 0  1.15625 0.21875 0  1.1875 0.21875 0  1.21875 0.21875 0  1.25 0.21875 0  1.28125 0.21875 0  1.3125 0.21875 0  1.34375 0.21875 0  1.375 0.21875 0  1.40625 0.21875 0  1.4375 0.21875 0  1.46875 0.21875 0  1.5 0.21875 0  0 0.25 0  0.03125 0.25 0  0.0625 0.25 0  0.09375 0.25 0  0.125 0.25 0  0.15625 0.25 0  0.1875 0.25 0  0.21875 0.25 0  0.25 0.25 0  0.28125 0.25 0  0.3125 0.25 0  0.34375 0.25 0  0.375 0.25 0  0.40625 0.25 0  0.4375 0.25 0  0.46875 0.25 0  0.5 0.25 0  0.53125 0.25 0  0.5625 0.25 0  0.59375 0.25 0  0.625 0.25 0  0.65625 0.25 0  0.6875 0.25 0  0.71875 0.25 0  0.75 0.25 0  0.78125 0.25 0  0.8125 0.25 0  0.84375 0.25 0  0.875 0.25 0  0.90625 0.25 0  0.9375 0.25 0  0.96875 0.25 0  1 0.25 0  1.03125 0.25 0  1.0625 0.25 0  1.09375 0.25 0  1.125 0.25 0  1.15625 0.25 0  1.1875 0.25 0  1.21875 0.25 0  1.25 0.25 0  1.28125 0.25 0  1.3125 0.25 0  1.34375 0.25 0  1.375 0.25 0  1.40625 0.25 0  1.4375 0.25 0  1.46875 0.25 0  1.5 0.25 0  0 0.28125 0  0.03125 0.28125 0  0.0625 0.28125 0  0.09375 0.28125 0  0.125 0.28125 0  0.15625 0.28125 0  0.1875 0.28125 0  0.21875 0.28125 0  0.25 0.28125 0  0.28125 0.28125 0  0.3125 0.28125 0  0.34375 0.28125 0  0.375 0.28125 0  0.40625 0.28125 0  0.4375 0.28125 0  0.46875 0.28125 0  0.5 0.28125 0  0.53125 0.28125 0  0.5625 0.28125 0  0.59375 0.28125 0  0.625 0.28125 0  0.65625 0.28125 0  0.6875 0.28125 0  0.71875 0.28125 0  0.75 0.28125 0  0.78125 0.28125 0  0.8125 0.28125 0  0.84375 0.28125 0  0.875 0.28125 0  0.90625 0.28125 0  0.9375 0.28125 0  0.96875 0.28125 0  1 0.28125 0  1.03125 0.28125 0  1.0625 0.28125 0  1.09375 0.28125 0  1.125 0.28125 0  1.15625 0.28125 0  1.1875 0.28125 0  1.21875 0.28125 0  1.25 0.28125 0  1.28125 0.28125 0  1.3125 0.28125 0  1.34375 0.28125 0  1.375 0.28125 0  1.40625 0.28125 0  1.4375 0.28125 0  1.46875 0.28125 0  1.5 0.28125 0  0 0.3125 0  0.03125 0.3125 0  0.0625 0.3125 0  0.09375 0.3125 0  0.125 0.3125 0  0.15625 0.3125 0  0.1875 0.3125 0  0.21875 0.3125 0  0.25 0.3125 0  0.28125 0.3125 0  0.3125 0.3125 0  0.34375 0.3125 0  0.375 0.3125 0  0.40625 0.3125 0  0.4375 0.3125 0  0.46875 0.3125 0  0.5 0.3125 0  0.53125 0.3125 0  0.5625 0.3125 0  0.59375 0.3125 0  0.625 0.3125 0  0.65625 0.3125 0  0.6875 0.3125 0  0.71875 0.3125 0  0.75 0.3125 0  0.78125 0.3125 0  0.8125 0.3125 0  0.84375 0.3125 0  0.875 0.3125 0  0.90625 0.3125 0  0.9375 0.3125 0  0.96875 0.3125 0  1 0.3125 0  1.03125 0.3125 0  1.0625 0.3125 0  1.09375 0.3125 0  1.125 0.3125 0  1.15625 0.3125 0  1.1875 0.3125 0  1.21875 0.3125 0  1.25 0.3125 0  1.28125 0.3125 0  1.3125 0.3125 0  1.34375 0.3125 0  1.375 0.3125 0  1.40625 0.3125 0  1.4375 0.3125 0  1.46875 0.3125 0  1.5 0.3125 0  0 0.34375 0  0.03125 0.34375 0  0.0625 0.34375 0  0.09375 0.34375 0  0.125 0.34375 0  0.15625 0.34375 0  0.1875 0.34375 0  0.21875 0.34375 0  0.25 0.34375 0  0.28125 0.34375 0  0.3125 0.34375 0  0.34375 0.34375 0  0.375 0.34375 0  0.40625 0.34375 0  0.4375 0.34375 0  0.46875 0.34375 0  0.5 0.34375 0  0.53125 0.34375 0  0.5625 0.34375 0  0.59375 0.34375 0  0.625 0.34375 0  0.65625 0.34375 0  0.6875 0.34375 0  0.71875 0.34375 0  0.75 0.34375 0  0.78125 0.34375 0  0.8125 0.34375 0  0.84375 0.34375 0  0.875 0.34375 0  0.90625 0.34375 0  0.9375 0.34375 0  0.96875 0.34375 0  1 0.34375 0  1.03125 0.34375 0  1.0625 0.34375 0  1.09375 0.34375 0  1.125 0.34375 0  1.15625 0.34375 0  1.1875 0.34375 0  1.21875 0.34375 0  1.25 0.34375 0  1.28125 0.34375 0  1.3125 0.34375 0  1.34375 0.34375 0  1.375 0.34375 0  1
[...]
<PointData  Vectors="f_17"> 
<DataArray  type="Float64"  Name="f_17"  NumberOfComponents="3" format="ascii">0.0000000000000000e+00 0.0000000000000000e+00 0.0000000000000000e+00  0.0000000000000000e+00 0.0000000000000000e+00 0.0000000000000000e+00  0.0000000000000000e+00 0.0000000000000000e+00 0.0000000000000000e+00  0.0000000000000000e+00 0.0000000000000000e+00 0.0000000000000000e+00  0.0000000000000000e+00 0.0000000000000000e+00 0.0000000000000000e+00  0.0000000000000000e+00 0.0000000000000000e+00 0.0000000000000000e+00  0.0000000000000000e+00 0.0000000000000000e+00 0.0000000000000000e+00  0.0000000000000000e+00 0.0000000000000000e+00 0.0000000000000000e+00  0.0000000000000000e+00 0.0000000000000000e+00 0.0000000000000000e+00  0.0000000000000000e+00 0.0000000000000000e+00 0.0000000000000000e+00  0.0000000000000000e+00 0.0000000000000000e+00 0.0000000000000000e+00  0.0000000000000000e+00 0.0000000000000000e+00 0.0000000000000000e+00  0.0000000000000000e+00 0.0000000000000000e+00 0.0000000000000000e+00  0.0000000000000000e+00 0.0000000000000000e+00 0.0000000000000000e+00  0.0000000000000000e+00 0.0000000000000000e+00 0.0000000000000000e+00  0.0000000000000000e+00 0.0000000000000000e+00 0.0000000000000000e+00  0.0000000000000000e+00 0.0000000000000000e+00 0.0000000000000000e+00  0.0000000000000000e+00 0.0000000000000000e+00 0.0000000000000000e+00  0.0000000000000000e+00 0.0000000000000000e+00 0.0000000000000000e+00  0.0000000000000000e+00 0.0000000000000000e+00 0.0000000000000000e+00  0.0000000000000000e+00 0.0000000000000000e+00 0.0000000000000000e+00  0.0000000000000000e+00 0.0000000000000000e+00 0.0000000000000000e+00  0.0000000000000000e+00 0.0000000000000000e+00 0.0000000000000000e+00  0.0000000000000000e+00 0.0000000000000000e+00 0.0000000000000000e+00  0.0000000000000000e+00 0.0000000000000000e+00 0.0000000000000000e+00  0.0000000000000000e+00 0.0000000000000000e+00 0.0000000000000000e+00  0.0000000000000000e+00 0.0000000000000000e+00 0.0000000000000000e+00  0.0000000000000000e+00 0.0000000000000000e+00 0.0000000000000000e+00  0.0000000000000000e+00 0.0000000000000000e+00 0.0000000000000000e+00  0.0000000000000000e+00 0.0000000000000000e+00 0.0000000000000000e+00  0.0000000000000000e+00 0.0000000000000000e+00 0.0000000000000000e+00  0.0000000000000000e+00 0.0000000000000000e+00 0.0000000000000000e+00  0.0000000000000000e+00 0.0000000000000000e+00 0.0000000000000000e+00  0.0000000000000000e+00 0.0000000000000000e+00 0.0000000000000000e+00  0.0000000000000000e+00 0.0000000000000000e+00 0.0000000000000000e+00  0.0000000000000000e+00 0.0000000000000000e+00 0.0000000000000000e+00  0.0000000000000000e+00 0.0000000000000000e+00 0.0000000000000000e+00  0.0000000000000000e+00 0.0000000000000000e+00 0.0000000000000000e+00  0.0000000000000000e+00 0.0000000000000000e+00 0.0000000000000000e+00  0.0000000000000000e+00 0.0000000000000000e+00 0.0000000000000000e+00  0.0000000000000000e+00 0.0000000000000000e+00 0.0000000000000000e+00  0.0000000000000000e+00 0.0000000000000000e+00 0.0000000000000000e+00  0.0000000000000000e+00 0.0000000000000000e+00 0.0000000000000000e+00  0.0000000000000000e+00 0.0000000000000000e+00 0.0000000000000000e+00  0.0000000000000000e+00 0.0000000000000000e+00 0.0000000000000000e+00  0.0000000000000000e+00 0.0000000000000000e+00 0.0000000000000000e+00  0.0000000000000000e+00 0.0000000000000000e+00 0.0000000000000000e+00  0.0000000000000000e+00 0.0000000000000000e+00 0.0000000000000000e+00  0.0000000000000000e+00 0.0000000000000000e+00 0.0000000000000000e+00  0.0000000000000000e+00 0.0000000000000000e+00 0.0000000000000000e+00  1.4515299728216183e-07 3.7061957479666778e-08 0.0000000000000000e+00  -1.1193333046520589e-07 1.1096047212397710e-07 0.0000000000000000e+00  -1.0269748240206609e-07 -2.3420429438917850e-08 0.0000000000000000e+00  -3.1715160446165540e-07 -6.4404019748757553e-08 0.0000000000000000e+00  -3.0514961313852591e-07 -9.1256976460083746e-08 0.0000000000000000e+00  -2.9162274270109622e-07 -9.4736422574755428e-08 0.0000000000000000e+00  -2.8096375924244484e-07 -8.6272763567040166e-08 0.0000000000000000e+00  -2.5962177564789542e-07 -7.5719990029273097e-08 0.0000000000000000e+00  -2.3967502845726121e-07 -6.4420800606650404e-08 0.0000000000000000e+00  -2.2123765542329119e-07 -5.3375187365726986e-08 0.0000000000000000e+00  -2.0550981599682187e-07 -4.2888504004119686e-08 0.0000000000000000e+00  -1.9369752769630457e-07 -3.2981078637609227e-08 0.0000000000000000e+00  -1.8625162457592373e-07 -2.3656660847071790e-08 0.0000000000000000e+00  -1.8353196537174382e-07 -1.4877673611601618e-08 0.0000000000000000e+00  -1.8574578959918505e-07 -6.5845226207390135e-09 0.0000000000000000e+00  -1.9300293883396483e-07 1.2854971811235092e-09 0.0000000000000000e+00  -2.0535810857098721e-07 8.7743803729208995e-09 0.0000000000000000e+00  -2.2280148086028677e-07 1.5873339018390139e-08 0.0000000000000000e+00  -2.4522565701032300e-07 2.2493999701253954e-08 0.0000000000000000e+00  -2.7236512600738083e-07 2.8450268967078119e-08 0.0000000000000000e+00  -3.0372151435020144e-07 3.3460644590713343e-08 0.0000000000000000e+00  -3.3849734370760578e-07 3.7177165997658195e-08 0.0000000000000000e+00  -3.7555977959147125e-07 3.9239133143923746e-08 0.0000000000000000e+00  -4.1345929470880737e-07 3.9340155055516955e-08 0.0000000000000000e+00  -4.5049990618148998e-07 3.7290620684311742e-08 0.0000000000000000e+00  -4.8487205220814041e-07 3.3056835851927434e-08 0.0000000000000000e+00  -5.1477956558025560e-07 2.6767970312980857e-08 0.0000000000000000e+00  -5.3861908337026870e-07 1.8685706943547241e-08 0.0000000000000000e+00  -5.5499951328055405e-07 9.1609395040515065e-09 0.0000000000000000e+00  -5.6297002489542219e-07 -1.4409177981782314e-09 0.0000000000000000e+00  -5.6166324161457822e-07 -1.2749882422991924e-08 0.0000000000000000e+00  -5.5100964454519714e-07 -2.4518313240104703e-08 0.0000000000000000e+00  -5.3013214338154984e-07 -3.6419046233233637e-08 0.0000000000000000e+00  -5.0050357745692564e-07 -4.8528527671033088e-08 0.0000000000000000e+00  -4.5924249459423482e-07 -6.0209138898306344e-08 0.0000000000000000e+00  -4.1284688862234336e-07 -7.2530606322411858e-08 0.0000000000000000e+00  -3.4876906724529674e-07 -8.2812599631446879e-08 0.0000000000000000e+00  -2.9388066635546353e-07 -9.6469157292444374e-08 0.0000000000000000e+00  -1.9441501904836976e-07 -1.0105007905817092e-07 0.0000000000000000e+00  -1.6119631286481929e-07 -1.2196348587767328e-07 0.0000000000000000e+00  2.9379614811571362e-08 -1.0275081046015198e-07 0.0000000000000000e+00  -7.4455276926351464e-08 -1.5748831421978092e-07 0.0000000000000000e+00  4.2537401944480418e-07 -4.0380429995533602e-08 0.0000000000000000e+00  -2.8723721644880325e-07 -2.4463575217712925e-07 0.0000000000000000e+00  1.2330726726645283e-06 2.3259371404749300e-07 0.0000000000000000e+00  -2.4179774210560504e-06 -7.3947970312560888e-07 0.0000000000000000e+00  2.6335950266856097e-06 1.3907629750638029e-06 0.0000000000000000e+00  0.0000000000000000e+00 0.0000000000000000e+00 0.0000000000000000e+00  0.0000000000000000e+00 0.0000000000000000e+00 0.0000000000000000e+00  -1.1467414617899574e-06 7.2665841156653203e-07 0.0000000000000000e+00  8.2447187929559286e-07 -1.8831522273620531e-09 0.0000000000000000e+00  -1.3445354474645613e-07 1.0774662648960740e-07 0.0000000000000000e+00  -3.3544704471585134e-07 -2.3645790964489949e-08 0.0000000000000000e+00  -3.5169461443093797e-07 -7.9991006535743853e-08 0.0000000000000000e+00  -4.0808396376200239e-07 -1.0305564210464387e-07 0.0000000000000000e+00  -4.0442349092440234e-07 -1.0823339249857166e-07 0.0000000000000000e+00  -3.9046373463291875e-07 -1.0402095668463717e-07 0.0000000000000000e+00  -3.7235728915835873e-07 -9.4559017268919344e-08 0.0000000000000000e+00  -3.5142896625422188e-07 -8.2353124328886399e-08 0.0000000000000000e+00  -3.3226967140127547e-07 -6.8623982902905087e-08 0.0000000000000000e+00  -3.1611560330763579e-07 -5.4130532609585068e-08 0.0000000000000000e+00  -3.0398071220953709e-07 -3.9362283291569836e-08 0.0000000000000000e+00  -2.9653988781225499e-07 -2.4610672795984028e-08 0.0000000000000000e+00  -2.9412853183471552e-07 -1.0035795160665799e-08 0.0000000000000000e+00  -2.9694196116153218e-07 4.2783895923398754e-09 0.0000000000000000e+00  -3.0506042273478213e-07 1.8263062346279221e-08 0.0000000000000000e+00  -3.1846933317005725e-07 3.1793979333976723e-08 0.0000000000000000e+00  -3.3703874436420135e-07 4.4622309253734083e-08 0.0000000000000000e+00  -3.6046214796455183e-07 5.6324622738993599e-08 0.0000000000000000e+00  -3.8817317421774871e-07 6.6293589704202840e-08 0.0000000000000000e+00  -4.1926643677765101e-07 7.3785769532213716e-08 0.0000000000000000e+00  -4.5245354125233592e-07 7.8026153153616942e-08 0.0000000000000000e+00  -4.8608930616887545e-07 7.8347179322111100e-08 0.0000000000000000e+00  -5.1826689042831030e-07 7.4323318108504456e-08 0.0000000000000000e+00  -5.4699143726699683e-07 6.5859305026617113e-08 0.0000000000000000e+00  -5.7034549425501402e-07 5.3208325210743065e-08 0.0000000000000000e+00  -5.8670282507964048e-07 3.6913501433156991e-08 0.0000000000000000e+00  -5.9474746348139107e-07 1.7710046637540063e-08 0.0000000000000000e+00  -5.9370809070771598e-07 -3.6134438625066763e-09 0.0000000000000000e+00  -5.8294408854050031e-07 -2.6277990161798859e-08 0.0000000000000000e+00  -5.6269326843941778e-07 -4.9676304874471136e-08 0.0000000000000000e+00  -5.3233714472590134e-07 -7.3181950243161841e-08 0.0000000000000000e+00  -4.9374542541756857e-07 -9.6615392245813211e-08 0.0000000000000000e+00  -4.4423657835276528e-07 -1.1913161080653638e-07 0.0000000000000000e+00  -3.9091106457697665e-07 -1.4150931996642528e-07 0.0000000000000000e+00  -3.2130252293789781e-07 -1.6092647612526749e-07 0.0000000000000000e+00  -2.6335680920890857e-07 -1.8202131576385899e-07 0.0000000000000000e+00  -1.6335573359671876e-07 -1.9271789848576841e-07 0.0000000000000000e+00  -1.3370672308846727e-07 -2.1538032773827686e-07 0.0000000000000000e+00  4.7651104149359074e-08 -1.9763549271264111e-07 0.0000000000000000e+00  -7.1178500482439041e-08 -2.4090310393964660e-07 0.0000000000000000e+00  3.9539336852115119e-07 -1.2409970587087885e-07 0.0000000000000000e+00  -3.4824843001536209e-07 -2.8926147374458038e-07 0.0000000000000000e+00  1.0392056654405364e-06 1.5883465442028681e-07 0.0000000000000000e+00  -2.4710277047995447e-06 -5.8353920028860975e-07 0.0000000000000000e+00  2.5339477154271168e-06 1.4547336767248091e-06 0.0000000000000000e+00  0.0000000000000000e+00 0.0000000000000000e+00 0.0000000000000000e+00  0.0000000000000000e+00 0.0000000000000000e+00 0.0000000000000000e+00  -2.1894180869343577e-06 1.2030838800923625e-06 0.0000000000000000e+00  1.7988524139293022e-06 -8.6323277910637707e-08 0.0000000000000000e+00  -3.7034989718354725e-07 2.8063503428844404e-07 0.0000000000000000e+00  -2.6017965956085416e-08 8.4784492411472997e-09 0.0000000000000000e+00  -1.7376505756952779e-07 -3.1052946248621736e-08 0.0000000000000000e+00  -2.3457501448194753e-07 -8.6692041755650940e-08 0.0000000000000000e+00  -2.5237614084856307e-07 -1.0672096045768754e-07 0.0000000000000000e+00  -2.7919172013857225e-07 -1.1154492123291434e-07 0.0000000000000000e+00  -2.8997187708086690e-07 -1.0632798396852271e-07 0.0000000000000000e+00  -2.9533462457683873e-07 -9.4955900207183585e-08 0.0000000000000000e+00  -2.9770202421762792e-07 -7.9952277203838835e-08 0.0000000000000000e+00  -2.9839815693579894e-07 -6.2854163636240047e-08 0.0000000000000000e+00  -2.9935849792601427e-07 -4.4667624601015271e-08 0.0000000000000000e+00  -3.0159915074334954e-07 -2.6020377003372814e-08 0.0000000000000000e+00  -3.0589118056834967e-07 -7.2853958053670315e-09 0.0000000000000000e+00  -3.1277954836293819e-07 1.1326759770681636e-08 0.0000000000000000e+00  -3.2262865514741122e-07 2.9671476603763815e-08 0.0000000000000000e+00  -3.3568323101762339e-07 4.7558268461978732e-08 0.0000000000000000e+00  -3.5205607296158545e-07 6.4636048848211646e-08 0.0000000000000000e+00  -3.7167466597786515e-07 8.0300675240098184e-08 0.0000000000000000e+00  -3.9419021497457514e-07 9.3663516447040407e-08 0.0000000000000000e+00  -4.1888252537575764e-07 1.0361402998802598e-07 0.0000000000000000e+00  -4.4460546726113854e-07 1.0898171145897973e-07 0.0000000000000000e+00  -4.6982244640905528e-07 1.0876194709226797e-07 0.0000000000000000e+00  -4.9273604557446024e-07 1.0233718540352334e-07 0.0000000000000000e+00  -5.1151472677895929e-07 8.9618767746666960e-08 0.0000000000000000e+00  -5.2450656695195514e-07 7.1066714211785321e-08 0.0000000000000000e+00  -5.3048226080150997e-07 4.7583301612640140e-08 0.0000000000000000e+00  -5.2864106585727601e-07 2.0339838176810303e-08 0.0000000000000000e+00  -5.1882046358425603e-07 -9.4395873591998387e-09 0.0000000000000000e+00  -5.0101175457518134e-07 -4.0595122907673273e-08 0.0000000000000000e+00  -4.7610608837559838e-07 -7.2222641973749942e-08 0.0000000000000000e+00  -4.4405287548605250e-07 -1.0347278660288810e-07 0.0000000000000000e+00  -4.0734678001218756e-07 -1.3400524335931653e-07 0.0000000000000000e+00  -3.6372258830029144e-07 -1.6282343925638534e-07 0.0000000000000000e+00  -3.2100068309835018e-07 -1.9054309987490182e-07 0.0000000000000000e+00  -2.6689857052620846e-07 -2.1413827127755844e-07 0.0000000000000000e+00  -2.3044545510224652e-07 -2.3784254357499712e-07 0.0000000000000000e+00  -1.5772173110095089e-07 -2.4948957169730804e-07 0.0000000000000000e+00  -1.6248485877881858e-07 -2.7002922111381849e-07 0.0000000000000000e+00  -2.3103303438538374e-08 -2.4941350954411785e-07 0.0000000000000000e+00  -1.8821788324150606e-07 -2.8269090406155324e-07 0.0000000000000000e+00  2.1569488254988304e-07 -1.6798019658098119e-07 0.0000000000000000e+00  -5.6631351707018493e-07 -3.1017743433993962e-07 0.0000000000000000e+00  7.3181553600263380e-07 8.9715622209803086e-08 0.0000000000000000e+00  -2.7001559089421007e-06 -5.3890892280612529e-07 0.0000000000000000e+00  2.1431226803634288e-06 1.2385472022762312e-06 0.0000000000000000e+00  0.0000000000000000e+00 0.0000000000000000e+00 0.0000000000000000e+00  0.0000000000000000e+00 0.0000000000000000e+00 0.0000000000000000e+00  -2.4392608296409331e-06 1.2471774691273391e-06 0.0000000000000000e+00  2.4180798730665331e-06 -1.1070347550443371e-07 0.0000000000000000e+00  -6.5820678252660180e-07 3.7085009129297607e-07 0.0000000000000000e+00  2.5910569428041221e-07 3.0777604406671958e-08 0.0000000000000000e+00  -1.6953152518008729e-07 4.6980435615193873e-08 0.0000000000000000e+00  -1.1871542752607524e-07 -4.2918705196198662e-08 0.0000000000000000e+00  -1.6953205183482512e-07 -6.8637635386774509e-08 0.0000000000000000e+00  -2.0701242044161494e-07 -8.7543890124939468e-08 0.0000000000000000e+00  -2.2854381597087613e-07 -9.0855247696708248e-08 0.0000000000000000e+00  -2.4844150362455844e-07 -8.5508392694896042e-08 0.0000000000000000e+00  -2.6214770547104745e-07 -7.4026338005656062e-08 0.0000000000000000e+00  -2.7281723148576973e-07 -5.8544250392629674e-08 0.0000000000000000e+00  -2.8186440763379051e-07 -4.0594507992363914e-08 0.0000000000000000e+00  -2.9022859027992882e-07 -2.1191165716245734e-08 0.0000000000000000e+00  -2.9882036415342691e-07 -1.0092891337365640e-09 0.0000000000000000e+00  -3.0823455579101549e-07 1.9539759728307377e-08 0.0000000000000000e+00  -3.1893917811621991e-07 4.0182210751547072e-08 0.0000000000000000e+00  -3.3130788157603689e-07 6.0634748447429086e-08 0.0000000000000000e+00  -3.4561675568836592e-07 8.0435561803459179e-08 0.0000000000000000e+00  -3.6198785340078150e-07 9.8790501452572236e-08 0.0000000000000000e+00  -3.8026731083915796e-07 1.1450000866439723e-07 0.0000000000000000e+00  -3.9988708505867665e-07 1.2602982627002378e-07 0.0000000000000000e+00  -4.1977545655747283e-07 1.3174647856779306e-07 0.0000000000000000e+00  -4.3839498684068849e-07 1.3026419597707776e-07 0.0000000000000000e+00  -4.5392348140983123e-07 1.2078623434779555e-07 0.0000000000000000e+00  -4.6456889737441281e-07 1.0331252643519942e-07 0.0000000000000000e+00  -4.6886265746801004e-07 7.8643372329476319e-08 0.0000000000000000e+00  -4.6594854771670283e-07 4.8187110120529846e-08 0.0000000000000000e+00  -4.5555701263912484e-07 1.3671038452817157e-08 0.0000000000000000e+00  -4.3817241242159358e-07 -2.3176421988906030e-08 0.0000000000000000e+00  -4.1441967078791931e-07 -6.0802637539984217e-08 0.0000000000000000e+00  -3.8583034169080045e-07 -9.8033325272086030e-08 0.0000000000000000e+00  -3.5278318152300649e-07 -1.3384989311762430e-07 0.0000000000000000e+00  -3.1831486415007641e-07 -1.6779104925396845e-07 0.0000000000000000e+00  -2.8016816877883157e-07 -1.9876822514990659e-07 0.0000000000000000e+00  -2.4688552880422039e-07 -2.2722157440199078e-07 0.0000000000000000e+00  -2.0527290075118418e-07 -2.5004352837206528e-07 0.0000000000000000e+00  -1.8619097067765201e-07 -2.7097863204727320e-07 0.0000000000000000e+00  -1.3207865533237517e-07 -2.7827490629577477e-07 0.0000000000000000e+00  -1.6240723004785807e-07 -2.9131706148800466e-07 0.0000000000000000e+00  -4.3442837053707691e-08 -2.6395118057538813e-07 0.0000000000000000e+00  -2.4138179870540726e-07 -2.8461089890266457e-07 0.0000000000000000e+00  1.5305240650721029e-07 -1.7190103639435029e-07 0.0000000000000000e+00  -6.6224039048756949e-07 -2.9478969582857590e-07 0.0000000000000000e+00  6.6122480620915086e-07 6.0107695402754111e-08 0.0000000000000000e+00  -2.7654057542597614e-06 -4.9202391758826232e-07 0.0000000000000000e+00  2.1226094921919024e-06 1.0750608326906714e-06 0.0000000000000000e+00  0.0000000000000000e+00 0.0000000000000000e+00 0.0000000000000000e+00  0.0000000000000000e+00 0.0000000000000000e+00 0.0000000000000000e+00  -2.3866577953345004e-06 1.1389586768497109e-06 0.0000000000000000e+00  2.6676441010594637e-06 -9.1106508098480324e-08 0.0000000000000000e+00  -7.8963000920175122e-07 3.7909553658864280e-07 0.0000000000000000e+00  4.8321872226994954e-07 5.1366931316617647e-08 0.0000000000000000e+00  -2.0044737755635280e-07 1.0842222012043381e-07 0.0000000000000000e+00  1.1788560173726177e-08 -1.6238192480742318e-09 0.0000000000000000e+00  -1.0389237203574859e-07 -2.2465038557903007e-08 0.0000000000000000e+00  -1.2198075802243283e-07 -5.4206839434129421e-08 0.0000000000000000e+00  -1.5522415998094889e-07 -6.3471460432910202e-08 0.0000000000000000e+00  -1.8398609618473936e-07 -6.4719762473406526e-08 0.0000000000000000e+00  -2.0597952536535834e-07 -5.7585215160268098e-08 0.0000000000000000e+00  -2.2529597963173815e-07 -4.5107602907702689e-08 0.0000000000000000e+00  -2.4157709207670482e-07 -2.8948085366193816e-08 0.0000000000000000e+00  -2.5600488312566548e-07 -1.0422729794942537e-08 0.0000000000000000e+00  -2.6932051192899051e-07 9.5502280489020536e-09 0.0000000000000000e+00  -2.8206746874435986e-07 3.0399991615294813e-08 0.0000000000000000e+00  -2.9475179409469655e-07 5.1763201574098748e-08 0.0000000000000000e+00  -3.0782055350213681e-07 7.3321811403097384e-08 0.0000000000000000e+00  -3.2169850408477503e-07 9.4568541038636012e-08 0.0000000000000000e+00  -3.3671239757521517e-07 1.1456521340862937e-07 0.0000000000000000e+00  -3.5291995522038205e-07 1.3179331857016843e-07 0.0000000000000000e+00  -3.6989403567733462e-07 1.4421871123193738e-07 0.0000000000000000e+00  -3.8656482048071100e-07 1.4962940488026904e-07 0.0000000000000000e+00  -4.0125386876520467e-07 1.4616854128028695e-07 0.0000000000000000e+00  -4.1194043887773892e-07 1.3286043111361554e-07 0.0000000000000000e+00  -4.1672474861705499e-07 1.0990681911304270e-07 0.0000000000000000e+00  -4.1425367632297656e-07 7.8641650261315936e-08 0.0000000000000000e+00  -4.0406737450245491e-07 4.1184609450367523e-08 0.0000000000000000e+00  -3.8651423896896996e-07 -3.0013230733038074e-11 0.0000000000000000e+00  -3.6281777943201598e-07 -4.2710310742758443e-08 0.0000000000000000e+00  -3.3429717024700431e-07 -8.4943152817931559e-08 0.0000000000000000e+00  -3.0310625666523235e-07 -1.2538492008008684e-07 0.0000000000000000e+00  -2.6999425002180311e-07 -1.6298128111915555e-07 0.0000000000000000e+00  -2.3836178827901771e-07 -1.97297102