<?xml version="1.0"?>
<VTKFile type="UnstructuredGrid"  version="0.1"  >
<UnstructuredGrid>
<Piece  NumberOfPoints="1617" NumberOfCells="3072">
<Points>
<DataArray  type="Float64"  NumberOfComponents="3"  format="ascii">0 0 0  0.03125 0 0  0.0625 0 0  0.09375 0 0  0.125 0 0  0.15625 0 0  0.1875 0 0  0.21875 0 0  0.25 0 0  0.28125 0 0  0.3125 0 0  0.34375 0 0  0.375 0 0  0.40625 0 0  0.4375 0 0  0.46875 0 0  0.5 0 0  0.53125 0 0  0.5625 0 0  0.59375 0 0  0.625 0 0  0.65625 0 0  0.6875 0 0  0.71875 0 0  0.75 0 0  0.78125 0 0  0.8125 0 0  0.84375 0 0  0.875 0 0  0.90625 0 0  0.9375 0 0  0.96875 0 0  1 0 0  1.03125 0 0  1.0625 0 0  1.09375 0 0  1.125 0 0  1.15625 0 0  1.1875 0 0  1.21875 0 0  1.25 0 0  1.28125 0 0  1.3125 0 0  1.34375 0 0  1.375 0 0  1.40625 0 0  1.4375 0 0  1.46875 0 0  1.5 0 0  0 0.03125 0  0.03125 0.03125 0  0.0625 0.03125 0  0.09375 0.03125 0  0.125 0.03125 0  0.15625 0.03125 0  0.1875 0.03125 0  0.21875 0.03125 0  0.25 0.03125 0  0.28125 0.03125 0  0.3125 0.03125 0  0.34375 0.03125 0  0.375 0.03125 0  0.40625 0.03125 0  0.4375 0.03125 0  0.46875 0.03125 0  0.5 0.03125 0  0.53125 0.03125 0  0.5625 0.03125 0  0.59375 0.03125 0  0.625 0.03125 0  0.65625 0.03125 0  0.6875 0.03125 0  0.71875 0.03125 0  0.75 0.03125 0  0.78125 0.03125 0  0.8125 0.03125 0  0.84375 0.03125 0  0.875 0.03125 0  0.90625 0.03125 0  0.9375 0.03125 0  0.96875 0.03125 0  1 0.03125 0  1.03125 0.03125 0  1.0625 0.03125 0  1.09375 0.03125 0  1.125 0.03125 0  1.15625 0.03125 0  1.1875 0.03125 0  1.21875 0.03125 0  1.25 0.03125 0  1.28125 0.03125 0  1.3125 0.03125 0  1.34375 0.03125 0  1.375 0.03125 0  1.40625 0.03125 0  1.4375 0.03125 0  1.46875 0.03125 0  1.5 0.03125 0  0 0.0625 0  0.03125 0.0625 0  0.0625 0.0625 0  0.09375 0.0625 0  0.125 0.0625 0  0.15625 0.0625 0  0.1875 0.0625 0  0.21875 0.0625 0  0.25 0.0625 0  0.28125 0.0625 0  0.3125 0.0625 0  0.34375 0.0625 0  0.375 0.0625 0  0.40625 0.0625 0  0.4375 0.0625 0  0.46875 0.0625 0  0.5 0.0625 0  0.53125 0.0625 0  0.5625 0.0625 0  0.59375 0.0625 0  0.625 0.0625 0  0.65625 0.0625 0  0.6875 0.0625 0  0.71875 0.0625 0  0.75 0.0625 0  0.78125 0.0625 0  0.8125 0.0625 0  0.84375 0.0625 0  0.875 0.0625 0  0.90625 0.0625 0  0.9375 0.0625 0  0.96875 0.0625 0  1 0.0625 0  1.03125 0.0625 0  1.0625 0.0625 0  1.09375 0.0625 0  1.125 0.0625 0  1.15625 0.0625 0  1.1875 0.0625 0  1.21875 0.0625 0  1.25 0.0625 0  1.28125 0.0625 0  1.3125 0.0625 0  1.34375 0.0625 0  1.375 0.0625 0  1.40625 0.0625 0  1.4375 0.0625 0  1.46875 0.0625 0  1.5 0.0625 0  0 0.09375 0  0.03125 0.09375 0  0.0625 0.09375 0  0.09375 0.09375 0  0.125 0.09375 0  0.15625 0.09375 0  0.1875 0.09375 0  0.21875 0.09375 0  0.25 0.09375 0  0.28125 0.09375 0  0.3125 0.09375 0  0.34375 0.09375 0  0.375 0.09375 0  0.40625 0.09375 0  0.4375 0.09375 0  0.46875 0.09375 0  0.5 0.09375 0  0.53125 0.09375 0  0.5625 0.09375 0  0.59375 0.09375 0  0.625 0.09375 0  0.65625 0.09375 0  0.6875 0.09375 0  0.71875 0.09375 0  0.75 0.09375 0  0.78125 0.09375 0  0.8125 0.09375 0  0.84375 0.09375 0  0.875 0.09375 0  0.90625 0.09375 0  0.9375 0.09375 0  0.96875 0.09375 0  1 0.09375 0  1.03125 0.09375 0  1.0625 0.09375 0  1.09375 0.09375 0  1.125 0.09375 0  1.15625 0.09375 0  1.1875 0.09375 0  1.21875 0.09375 0  1.25 0.09375 0  1.28125 0.09375 0  1.3125 0.09375 0  1.34375 0.09375 0  1.375 0.09375 0  1.40625 0.09375 0  1.4375 0.09375 0  1.46875 0.09375 0  1.5 0.09375 0  0 0.125 0  0.03125 0.125 0  0.0625 0.125 0  0.09375 0.125 0  0.125 0.125 0  0.15625 0.125 0  0.1875 0.125 0  0.21875 0.125 0  0.25 0.125 0  0.28125 0.125 0  0.3125 0.125 0  0.34375 0.125 0  0.375 0.125 0  0.40625 0.125 0  0.4375 0.125 0  0.46875 0.125 0  0.5 0.125 0  0.53125 0.125 0  0.5625 0.125 0  0.59375 0.125 0  0.625 0.125 0  0.65625 0.125 0  0.6875 0.125 0  0.71875 0.125 0  0.75 0.125 0  0.78125 0.125 0  0.8125 0.125 0  0.84375 0.125 0  0.875 0.125 0  0.90625 0.125 0  0.9375 0.125 0  0.96875 0.125 0  1 0.125 0  1.03125 0.125 0  1.0625 0.125 0  1.09375 0.125 0  1.125 0.125 0  1.15625 0.125 0  1.1875 0.125 0  1.21875 0.125 0  1.25 0.125 0  1.28125 0.125 0  1.3125 0.125 0  1.34375 0.125 0  1.375 0.125 0  1.40625 0.125 0  1.4375 0.125 0  1.46875 0.125 0  1.5 0.125 0  0 0.15625 0  0.03125 0.15625 0  0.0625 0.15625 0  0.09375 0.15625 0  0.125 0.15625 0  0.15625 0.15625 0  0.1875 0.15625 0  0.21875 0.15625 0  0.25 0.15625 0  0.28125 0.15625 0  0.3125 0.15625 0  0.34375 0.15625 0  0.375 0.15625 0  0.40625 0.15625 0  0.4375 0.15625 0  0.46875 0.15625 0  0.5 0.15625 0  0.53125 0.15625 0  0.5625 0.15625 0  0.59375 0.15625 0  0.625 0.15625 0  0.65625 0.15625 0  0.6875 0.15625 0  0.71875 0.15625 0  0.75 0.15625 0  0.78125 0.15625 0  0.8125 0.15625 0  0.84375 0.15625 0  0.875 0.15625 0  0.90625 0.15625 0  0.9375 0.15625 0  0.96875 0.15625 0  1 0.15625 0  1.03125 0.15625 0  1.0625 0.15625 0  1.09375 0.15625 0  1.125 0.15625 0  1.15625 0.15625 0  1.1875 0.15625 0  1.21875 0.15625 0  1.25 0.15625 0  1.28125 0.15625 0  1.3125 0.15625 0  1.34375 0.15625 0  1.375 0.15625 0  1.40625 0.15625 0  1.4375 0.15625 0  1.46875 0.15625 0  1.5 0.15625 0  0 0.1875 0  0.03125 0.1875 0  0.0625 0.1875 0  0.09375 0.1875 0  0.125 0.1875 0  0.15625 0.1875 0  0.1875 0.1875 0  0.21875 0.1875 0  0.25 0.1875 0  0.28125 0.1875 0  0.3125 0.1875 0  0.34375 0.1875 0  0.375 0.1875 0  0.40625 0.1875 0  0.4375 0.1875 0  0.46875 0.1875 0  0.5 0.1875 0  0.53125 0.1875 0  0.5625 0.1875 0  0.59375 0.1875 0  0.625 0.1875 0  0.65625 0.1875 0  0.6875 0.1875 0  0.71875 0.1875 0  0.75 0.1875 0  0.78125 0.1875 0  0.8125 0.1875 0  0.84375 0.1875 0  0.875 0.1875 0  0.90625 0.1875 0  0.9375 0.1875 0  0.96875 0.1875 0  1 0.1875 0  1.03125 0.1875 0  1.0625 0.1875 0  1.09375 0.1875 0  1.125 0.1875 0  1.15625 0.1875 0  1.1875 0.1875 0  1.21875 0.1875 0  1.25 0.1875 0  1.28125 0.1875 0  1.3125 0.1875 0  1.34375 0.1875 0  1.375 0.1875 0  1.40625 0.1875 0  1.4375 0.1875 0  1.46875 0.1875 0  1.5 0.1875 0  0 0.21875 0  0.03125 0.21875 0  0.0625 0.21875 0  0.09375 0.21875 0  0.125 0.21875 0  0.15625 0.21875 0  0.1875 0.21875 0  0.21875 0.21875 0  0.25 0.21875 0  0.28125 0.21875 0  0.3125 0.21875 0  0.34375 0.21875 0  0.375 0.21875 0  0.40625 0.21875 0  0.4375 0.21875 0  0.46875 0.21875 0  0.5 0.21875 0  0.53125 0.21875 0  0.5625 0.21875 0  0.59375 0.21875 0  0.625 0.21875 0  0.65625 0.21875 0  0.6875 0.21875 0  0.71875 0.21875 0  0.75 0.21875 0  0.78125 0.21875 0  0.8125 0.21875 0  0.84375 0.21875 0  0.875 0.21875 0  0.90625 0.21875 0  0.9375 0.21875 0  0.96875 0.21875 0  1 0.21875 0  1.03125 0.21875 0  1.0625 0.21875 0  1.09375 0.21875 0  1.125 0.21875 0  1.15625 0.21875 0  1.1875 0.21875 0  1.21875 0.21875 0  1.25 0.21875 0  1.28125 0.21875 0  1.3125 0.21875 0  1.34375 0.21875 0  1.375 0.21875 0  1.40625 0.21875 0  1.4375 0.21875 0  1.46875 0.21875 0  1.5 0.21875 0  0 0.25 0  0.03125 0.25 0  0.0625 0.25 0  0.09375 0.25 0  0.125 0.25 0  0.15625 0.25 0  0.1875 0.25 0  0.21875 0.25 0  0.25 0.25 0  0.28125 0.25 0  0.3125 0.25 0  0.34375 0.25 0  0.375 0.25 0  0.40625 0.25 0  0.4375 0.25 0  0.46875 0.25 0  0.5 0.25 0  0.53125 0.25 0  0.5625 0.25 0  0.59375 0.25 0  0.625 0.25 0  0.65625 0.25 0  0.6875 0.25 0  0.71875 0.25 0  0.75 0.25 0  0.78125 0.25 0  0.8125 0.25 0  0.84375 0.25 0  0.875 0.25 0  0.90625 0.25 0  0.9375 0.25 0  0.96875 0.25 0  1 0.25 0  1.03125 0.25 0  1.0625 0.25 0  1.09375 0.25 0  1.125 0.25 0  1.15625 0.25 0  1.1875 0.25 0  1.21875 0.25 0  1.25 0.25 0  1.28125 0.25 0  1.3125 0.25 0  1.34375 0.25 0  1.375 0.25 0  1.40625 0.25 0  1.4375 0.25 0  1.46875 0.25 0  1.5 0.25 0  0 0.28125 0  0.03125 0.28125 0  0.0625 0.28125 0  0.09375 0.28125 0  0.125 0.28125 0  0.15625 0.28125 0  0.1875 0.28125 0  0.21875 0.28125 0  0.25 0.28125 0  0.28125 0.28125 0  0.3125 0.28125 0  0.34375 0.28125 0  0.375 0.28125 0  0.40625 0.28125 0  0.4375 0.28125 0  0.46875 0.28125 0  0.5 0.28125 0  0.53125 0.28125 0  0.5625 0.28125 0  0.59375 0.28125 0  0.625 0.28125 0  0.65625 0.28125 0  0.6875 0.28125 0  0.71875 0.28125 0  0.75 0.28125 0  0.78125 0.28125 0  0.8125 0.28125 0  0.84375 0.28125 0  0.875 0.28125 0  0.90625 0.28125 0  0.9375 0.28125 0  0.96875 0.28125 0  1 0.28125 0  1.03125 0.28125 0  1.0625 0.28125 0  1.09375 0.28125 0  1.125 0.28125 0  1.15625 0.28125 0  1.1875 0.28125 0  1.21875 0.28125 0  1.25 0.28125 0  1.28125 0.28125 0  1.3125 0.28125 0  1.34375 0.28125 0  1.375 0.28125 0  1.40625 0.28125 0  1.4375 0.28125 0  1.46875 0.28125 0  1.5 0.28125 0  0 0.3125 0  0.03125 0.3125 0  0.0625 0.3125 0  0.09375 0.3125 0  0.125 0.3125 0  0.15625 0.3125 0  0.1875 0.3125 0  0.21875 0.3125 0  0.25 0.3125 0  0.28125 0.3125 0  0.3125 0.3125 0  0.34375 0.3125 0  0.375 0.3125 0  0.40625 0.3125 0  0.4375 0.3125 0  0.46875 0.3125 0  0.5 0.3125 0  0.53125 0.3125 0  0.5625 0.3125 0  0.59375 0.3125 0  0.625 0.3125 0  0.65625 0.3125 0  0.6875 0.3125 0  0.71875 0.3125 0  0.75 0.3125 0  0.78125 0.3125 0  0.8125 0.3125 0  0.84375 0.3125 0  0.875 0.3125 0  0.90625 0.3125 0  0.9375 0.3125 0  0.96875 0.3125 0  1 0.3125 0  1.03125 0.3125 0  1.0625 0.3125 0  1.09375 0.3125 0  1.125 0.3125 0  1.15625 0.3125 0  1.1875 0.3125 0  1.21875 0.3125 0  1.25 0.3125 0  1.28125 0.3125 0  1.3125 0.3125 0  1.34375 0.3125 0  1.375 0.3125 0  1.40625 0.3125 0  1.4375 0.3125 0  1.46875 0.3125 0  1.5 0.3125 0  0 0.34375 0  0.03125 0.34375 0  0.0625 0.34375 0  0.09375 0.34375 0  0.125 0.34375 0  0.15625 0.34375 0  0.1875 0.34375 0  0.21875 0.34375 0  0.25 0.34375 0  0.28125 0.34375 0  0.3125 0.34375 0  0.34375 0.34375 0  0.375 0.34375 0  0.40625 0.34375 0  0.4375 0.34375 0  0.46875 0.34375 0  0.5 0.34375 0  0.53125 0.34375 0  0.5625 0.34375 0  0.59375 0.34375 0  0.625 0.34375 0  0.65625 0.34375 0  0.6875 0.34375 0  0.71875 0.34375 0  0.75 0.34375 0  0.78125 0.34375 0  0.8125 0.34375 0  0.84375 0.34375 0  0.875 0.34375 0  0.90625 0.34375 0  0.9375 0.34375 0  0.96875 0.34375 0  1 0.34375 0  1.03125 0.34375 0  1.0625 0.34375 0  1.09375 0.34375 0  1.125 0.34375 0  1.15625 0.34375 0  1.1875 0.34375 0  1.21875 0.34375 0  1.25 0.34375 0  1.28125 0.34375 0  1.3125 0.34375 0  1.34375 0.34375 0  1.375 0.34375 0  1
[...]
<PointData  Vectors="f_17"> 
<DataArray  type="Float64"  Name="f_17"  NumberOfComponents="3" format="ascii">0.0000000000000000e+00 0.0000000000000000e+00 0.0000000000000000e+00  0.0000000000000000e+00 0.0000000000000000e+00 0.0000000000000000e+00  0.0000000000000000e+00 0.0000000000000000e+00 0.0000000000000000e+00  0.0000000000000000e+00 0.0000000000000000e+00 0.0000000000000000e+00  0.0000000000000000e+00 0.0000000000000000e+00 0.0000000000000000e+00  0.0000000000000000e+00 0.0000000000000000e+00 0.0000000000000000e+00  0.0000000000000000e+00 0.0000000000000000e+00 0.0000000000000000e+00  0.0000000000000000e+00 0.0000000000000000e+00 0.0000000000000000e+00  0.0000000000000000e+00 0.0000000000000000e+00 0.0000000000000000e+00  0.0000000000000000e+00 0.0000000000000000e+00 0.0000000000000000e+00  0.0000000000000000e+00 0.0000000000000000e+00 0.0000000000000000e+00  0.0000000000000000e+00 0.0000000000000000e+00 0.0000000000000000e+00  0.0000000000000000e+00 0.0000000000000000e+00 0.0000000000000000e+00  0.0000000000000000e+00 0.0000000000000000e+00 0.0000000000000000e+00  0.0000000000000000e+00 0.0000000000000000e+00 0.0000000000000000e+00  0.0000000000000000e+00 0.0000000000000000e+00 0.0000000000000000e+00  0.0000000000000000e+00 0.0000000000000000e+00 0.0000000000000000e+00  0.0000000000000000e+00 0.0000000000000000e+00 0.0000000000000000e+00  0.0000000000000000e+00 0.0000000000000000e+00 0.0000000000000000e+00  0.0000000000000000e+00 0.0000000000000000e+00 0.0000000000000000e+00  0.0000000000000000e+00 0.0000000000000000e+00 0.0000000000000000e+00  0.0000000000000000e+00 0.0000000000000000e+00 0.0000000000000000e+00  0.0000000000000000e+00 0.0000000000000000e+00 0.0000000000000000e+00  0.0000000000000000e+00 0.0000000000000000e+00 0.0000000000000000e+00  0.0000000000000000e+00 0.0000000000000000e+00 0.0000000000000000e+00  0.0000000000000000e+00 0.0000000000000000e+00 0.0000000000000000e+00  0.0000000000000000e+00 0.0000000000000000e+00 0.0000000000000000e+00  0.0000000000000000e+00 0.0000000000000000e+00 0.0000000000000000e+00  0.0000000000000000e+00 0.0000000000000000e+00 0.0000000000000000e+00  0.0000000000000000e+00 0.0000000000000000e+00 0.0000000000000000e+00  0.0000000000000000e+00 0.0000000000000000e+00 0.0000000000000000e+00  0.0000000000000000e+00 0.0000000000000000e+00 0.0000000000000000e+00  0.0000000000000000e+00 0.0000000000000000e+00 0.0000000000000000e+00  0.0000000000000000e+00 0.0000000000000000e+00 0.0000000000000000e+00  0.0000000000000000e+00 0.0000000000000000e+00 0.0000000000000000e+00  0.0000000000000000e+00 0.0000000000000000e+00 0.0000000000000000e+00  0.0000000000000000e+00 0.0000000000000000e+00 0.0000000000000000e+00  0.0000000000000000e+00 0.0000000000000000e+00 0.0000000000000000e+00  0.0000000000000000e+00 0.0000000000000000e+00 0.0000000000000000e+00  0.0000000000000000e+00 0.0000000000000000e+00 0.0000000000000000e+00  0.0000000000000000e+00 0.0000000000000000e+00 0.0000000000000000e+00  0.0000000000000000e+00 0.0000000000000000e+00 0.0000000000000000e+00  0.0000000000000000e+00 0.0000000000000000e+00 0.0000000000000000e+00  0.0000000000000000e+00 0.0000000000000000e+00 0.0000000000000000e+00  0.0000000000000000e+00 0.0000000000000000e+00 0.0000000000000000e+00  0.0000000000000000e+00 0.0000000000000000e+00 0.0000000000000000e+00  0.0000000000000000e+00 0.0000000000000000e+00 0.0000000000000000e+00  0.0000000000000000e+00 0.0000000000000000e+00 0.0000000000000000e+00  0.0000000000000000e+00 0.0000000000000000e+00 0.0000000000000000e+00  0.0000000000000000e+00 0.0000000000000000e+00 0.0000000000000000e+00  1.5630135842284961e-07 2.3511682149599310e-08 0.0000000000000000e+00  -7.9484087876917378e-08 9.1205424325043697e-08 0.0000000000000000e+00  -5.0451352557006622e-08 -4.3966604811700601e-08 0.0000000000000000e+00  -2.4979179512835060e-07 -8.5625169309715643e-08 0.0000000000000000e+00  -2.2513865501454637e-07 -1.1212670512299168e-07 0.0000000000000000e+00  -1.9952501754273577e-07 -1.1403714394874066e-07 0.0000000000000000e+00  -1.7705997730830474e-07 -1.0314459290725073e-07 0.0000000000000000e+00  -1.4438434730102616e-07 -8.9818818796656966e-08 0.0000000000000000e+00  -1.1402546773175075e-07 -7.5876683659792833e-08 0.0000000000000000e+00  -8.6349624151154871e-08 -6.2617424466869248e-08 0.0000000000000000e+00  -6.2569191531777383e-08 -5.0457573984413460e-08 0.0000000000000000e+00  -4.3711739802326033e-08 -3.9402061616932497e-08 0.0000000000000000e+00  -2.9966663777009304e-08 -2.9372405730845650e-08 0.0000000000000000e+00  -2.1427849158587785e-08 -2.0227246693225309e-08 0.0000000000000000e+00  -1.8077629619964692e-08 -1.1805858952936814e-08 0.0000000000000000e+00  -1.9860845037547953e-08 -3.9561899731657995e-09 0.0000000000000000e+00  -2.6731115203309014e-08 3.4406914626345338e-09 0.0000000000000000e+00  -3.8639481866238073e-08 1.0443508536549087e-08 0.0000000000000000e+00  -5.5498110330244184e-08 1.7025536779571310e-08 0.0000000000000000e+00  -7.7117045598343061e-08 2.3058890397111611e-08 0.0000000000000000e+00  -1.0312693441513656e-07 2.8317223862043774e-08 0.0000000000000000e+00  -1.3290894672892943e-07 3.2502761514403006e-08 0.0000000000000000e+00  -1.6555158081198038e-07 3.5296104709472752e-08 0.0000000000000000e+00  -1.9985792914809235e-07 3.6418304736889766e-08 0.0000000000000000e+00  -2.3439986025686208e-07 3.5688671236236232e-08 0.0000000000000000e+00  -2.6763129368217662e-07 3.3060999139101031e-08 0.0000000000000000e+00  -2.9799447703712278e-07 2.8630352406683519e-08 0.0000000000000000e+00  -3.2408023446406243e-07 2.2605447933525854e-08 0.0000000000000000e+00  -3.4463266639294654e-07 1.5270208198014873e-08 0.0000000000000000e+00  -3.5876707592196424e-07 6.9146412363488804e-09 0.0000000000000000e+00  -3.6560914694842430e-07 -2.1704181419970667e-09 0.0000000000000000e+00  -3.6500588099383720e-07 -1.1817502908938048e-08 0.0000000000000000e+00  -3.5592170089180324e-07 -2.1780590826535537e-08 0.0000000000000000e+00  -3.3958566750334429e-07 -3.2219796855618435e-08 0.0000000000000000e+00  -3.1279372587771475e-07 -4.2586479121968343e-08 0.0000000000000000e+00  -2.8161058263831824e-07 -5.4042857178061850e-08 0.0000000000000000e+00  -2.3300811810115000e-07 -6.4000523707101114e-08 0.0000000000000000e+00  -1.9325622378721459e-07 -7.7938780262853160e-08 0.0000000000000000e+00  -1.0823412672518201e-07 -8.3430682546579534e-08 0.0000000000000000e+00  -8.8326627005105045e-08 -1.0578162032920718e-07 0.0000000000000000e+00  8.9264302067204079e-08 -8.8373633201029506e-08 0.0000000000000000e+00  -2.7192965495769022e-08 -1.4486820883276093e-07 0.0000000000000000e+00  4.5752920593514504e-07 -2.9363491784825952e-08 0.0000000000000000e+00  -2.6923528609595279e-07 -2.3463517173731388e-07 0.0000000000000000e+00  1.2323039174471575e-06 2.4104174781998737e-07 0.0000000000000000e+00  -2.4206896152883445e-06 -7.3250037451485157e-07 0.0000000000000000e+00  2.6326249449156382e-06 1.3872050656642073e-06 0.0000000000000000e+00  0.0000000000000000e+00 0.0000000000000000e+00 0.0000000000000000e+00  0.0000000000000000e+00 0.0000000000000000e+00 0.0000000000000000e+00  -1.1304839764451733e-06 6.9781170947450662e-07 0.0000000000000000e+00  8.6256833244635419e-07 -4.0922398594230077e-08 0.0000000000000000e+00  -7.3679334554218860e-08 6.7857630966052424e-08 0.0000000000000000e+00  -2.5930826039779362e-07 -6.4347115404065627e-08 0.0000000000000000e+00  -2.6280576212750476e-07 -1.1974404172005933e-07 0.0000000000000000e+00  -3.0650913243807955e-07 -1.4020348700052894e-07 0.0000000000000000e+00  -2.8990774062541587e-07 -1.4143074691573835e-07 0.0000000000000000e+00  -2.6285150237969856e-07 -1.3259354187350871e-07 0.0000000000000000e+00  -2.3213084643406140e-07 -1.1858248326070570e-07 0.0000000000000000e+00  -1.9956918905671630e-07 -1.0242222453682234e-07 0.0000000000000000e+00  -1.6995388184165797e-07 -8.5589675641956503e-08 0.0000000000000000e+00  -1.4445194522107344e-07 -6.8883440071767398e-08 0.0000000000000000e+00  -1.2385418974032058e-07 -5.2699609339114934e-08 0.0000000000000000e+00  -1.0856037998329347e-07 -3.7175059468153194e-08 0.0000000000000000e+00  -9.8647782068502798e-08 -2.2299570601916981e-08 0.0000000000000000e+00  -9.4106152760836589e-08 -7.9930817977047992e-09 0.0000000000000000e+00  -9.4878124995477123e-08 5.8267949213541372e-09 0.0000000000000000e+00  -1.0088420391237008e-07 1.9175793189147509e-08 0.0000000000000000e+00  -1.1200295011648034e-07 3.1937925293234465e-08 0.0000000000000000e+00  -1.2800945555148060e-07 4.3818277836083387e-08 0.0000000000000000e+00  -1.4849087250610249e-07 5.4332830434152679e-08 0.0000000000000000e+00  -1.7276359578986864e-07 6.2850632909863231e-08 0.0000000000000000e+00  -1.9982069029009689e-07 6.8688486267880127e-08 0.0000000000000000e+00  -2.2834261180275773e-07 7.1237944973758024e-08 0.0000000000000000e+00  -2.5676953341339135e-07 7.0089022830989654e-08 0.0000000000000000e+00  -2.8344661804190190e-07 6.5112132432646136e-08 0.0000000000000000e+00  -3.0675935356038107e-07 5.6476858866066000e-08 0.0000000000000000e+00  -3.2531992285556653e-07 4.4601077647262508e-08 0.0000000000000000e+00  -3.3796584245253016e-07 3.0065736567191474e-08 0.0000000000000000e+00  -3.4398194523069678e-07 1.3490265510033622e-08 0.0000000000000000e+00  -3.4268345884854643e-07 -4.5183004831802510e-09 0.0000000000000000e+00  -3.3416385872617150e-07 -2.3519900716247784e-08 0.0000000000000000e+00  -3.1756759032502771e-07 -4.3048143240392634e-08 0.0000000000000000e+00  -2.9443207041929482e-07 -6.3078201543700356e-08 0.0000000000000000e+00  -2.6166558467885695e-07 -8.2916447920414435e-08 0.0000000000000000e+00  -2.2586534265372654e-07 -1.0348908386815791e-07 0.0000000000000000e+00  -1.7405123451427000e-07 -1.2210492545993790e-07 0.0000000000000000e+00  -1.3360783266805503e-07 -1.4349407167979648e-07 0.0000000000000000e+00  -5.0583683301239088e-08 -1.5558702203080135e-07 0.0000000000000000e+00  -3.7176794423784252e-08 -1.8063137913435369e-07 0.0000000000000000e+00  1.2761321672559898e-07 -1.6599030676687384e-07 0.0000000000000000e+00  -8.1573179046715822e-09 -2.1268962402272001e-07 0.0000000000000000e+00  4.3846395705109830e-07 -9.9371476272673475e-08 0.0000000000000000e+00  -3.2414015859827608e-07 -2.6795728298159590e-07 0.0000000000000000e+00  1.0419421393867567e-06 1.7601981845266694e-07 0.0000000000000000e+00  -2.4717405249538358e-06 -5.7218655287323107e-07 0.0000000000000000e+00  2.5315524124576483e-06 1.4563578906777992e-06 0.0000000000000000e+00  0.0000000000000000e+00 0.0000000000000000e+00 0.0000000000000000e+00  0.0000000000000000e+00 0.0000000000000000e+00 0.0000000000000000e+00  -2.1716381024427010e-06 1.1597241341482771e-06 0.0000000000000000e+00  1.8354567230885546e-06 -1.4159125814992793e-07 0.0000000000000000e+00  -3.1185089492671439e-07 2.2350593662720209e-07 0.0000000000000000e+00  4.4046469156935376e-08 -4.9282409847808200e-08 0.0000000000000000e+00  -9.3213776917619721e-08 -8.7028221334162622e-08 0.0000000000000000e+00  -1.4335690136916432e-07 -1.3922059047682518e-07 0.0000000000000000e+00  -1.4965422775591073e-07 -1.5429844477773633e-07 0.0000000000000000e+00  -1.6420716082429001e-07 -1.5339315647674337e-07 0.0000000000000000e+00  -1.6267619453002802e-07 -1.4245538806960421e-07 0.0000000000000000e+00  -1.5628666710635074e-07 -1.2597437656916112e-07 0.0000000000000000e+00  -1.4776894382717864e-07 -1.0683343244282301e-07 0.0000000000000000e+00  -1.3849523952988421e-07 -8.6683371177501318e-08 0.0000000000000000e+00  -1.3026955788524096e-07 -6.6472537140395582e-08 0.0000000000000000e+00  -1.2390043126302704e-07 -4.6671359151361942e-08 0.0000000000000000e+00  -1.1994293030349287e-07 -2.7451074312913789e-08 0.0000000000000000e+00  -1.1875840083823573e-07 -8.8083924558450273e-09 0.0000000000000000e+00  -1.2058171017309449e-07 9.3238797579853074e-09 0.0000000000000000e+00  -1.2559268406994853e-07 2.6962248918764829e-08 0.0000000000000000e+00  -1.3390926975966185e-07 4.3959841241276247e-08 0.0000000000000000e+00  -1.4553742859745128e-07 5.9915287958583824e-08 0.0000000000000000e+00  -1.6028175625604180e-07 7.4137743484591274e-08 0.0000000000000000e+00  -1.7764857202580815e-07 8.5698686321540051e-08 0.0000000000000000e+00  -1.9678331849279145e-07 9.3576158806456133e-08 0.0000000000000000e+00  -2.1648906108760635e-07 9.6859345442866744e-08 0.0000000000000000e+00  -2.3532961246676481e-07 9.4950714724187649e-08 0.0000000000000000e+00  -2.5182248057770017e-07 8.7697344507310662e-08 0.0000000000000000e+00  -2.6461692388265630e-07 7.5412867968319630e-08 0.0000000000000000e+00  -2.7270547127599086e-07 5.8785949990264010e-08 0.0000000000000000e+00  -2.7540835755586164e-07 3.8730645781237281e-08 0.0000000000000000e+00  -2.7257297259995846e-07 1.6195975484983914e-08 0.0000000000000000e+00  -2.6409157907540249e-07 -7.9291866198291647e-09 0.0000000000000000e+00  -2.5065426008799823e-07 -3.2993536038721948e-08 0.0000000000000000e+00  -2.3192319392757881e-07 -5.8376729298907237e-08 0.0000000000000000e+00  -2.1002576392389107e-07 -8.3944234532169363e-08 0.0000000000000000e+00  -1.8227849155752224e-07 -1.0888419784917686e-07 0.0000000000000000e+00  -1.5602674132620458e-07 -1.3397447506518851e-07 0.0000000000000000e+00  -1.1855529166987711e-07 -1.5631798738201127e-07 0.0000000000000000e+00  -9.8462794879265813e-08 -1.8022137421104926e-07 0.0000000000000000e+00  -4.1784369030662110e-08 -1.9350643458903537e-07 0.0000000000000000e+00  -6.2244920307315544e-08 -2.1699116813534744e-07 0.0000000000000000e+00  6.0594743266437034e-08 -2.0040671683320982e-07 0.0000000000000000e+00  -1.2187943951760657e-07 -2.3845259354802084e-07 0.0000000000000000e+00  2.6148136811788154e-07 -1.2910803788330093e-07 0.0000000000000000e+00  -5.3977800414709568e-07 -2.7707895933500643e-07 0.0000000000000000e+00  7.3703716317844032e-07 1.1584999498520788e-07 0.0000000000000000e+00  -2.6981336097785409e-06 -5.2086909671691035e-07 0.0000000000000000e+00  2.1411757456392320e-06 1.2451251364226913e-06 0.0000000000000000e+00  0.0000000000000000e+00 0.0000000000000000e+00 0.0000000000000000e+00  0.0000000000000000e+00 0.0000000000000000e+00 0.0000000000000000e+00  -2.4230892075718888e-06 1.1927474485471824e-06 0.0000000000000000e+00  2.4492589525973498e-06 -1.7904486635766375e-07 0.0000000000000000e+00  -6.0713750413406940e-07 2.9921190126674889e-07 0.0000000000000000e+00  3.1706664822369620e-07 -4.1305813784002078e-08 0.0000000000000000e+00  -1.0367861599606639e-07 -2.2801198341018125e-08 0.0000000000000000e+00  -4.4852347423339885e-08 -1.0867425629919123e-07 0.0000000000000000e+00  -8.5978487453989381e-08 -1.2879489603221552e-07 0.0000000000000000e+00  -1.1255614145593625e-07 -1.4133717374976245e-07 0.0000000000000000e+00  -1.2272935141387434e-07 -1.3824363115985779e-07 0.0000000000000000e+00  -1.3148378718686980e-07 -1.2707765901439641e-07 0.0000000000000000e+00  -1.3462970884660444e-07 -1.1077157300305369e-07 0.0000000000000000e+00  -1.3543249170919453e-07 -9.1633312083398352e-08 0.0000000000000000e+00  -1.3524072213943683e-07 -7.1183791774147887e-08 0.0000000000000000e+00  -1.3485131168546312e-07 -5.0299884411648122e-08 0.0000000000000000e+00  -1.3501343082170975e-07 -2.9448678850303141e-08 0.0000000000000000e+00  -1.3617993165683287e-07 -8.7996575993655287e-09 0.0000000000000000e+00  -1.3871712988774384e-07 1.1629276571425294e-08 0.0000000000000000e+00  -1.4294926032999904e-07 3.1817390828847810e-08 0.0000000000000000e+00  -1.4916287088285659e-07 5.1571425738894996e-08 0.0000000000000000e+00  -1.5755619339307072e-07 7.0371021300926466e-08 0.0000000000000000e+00  -1.6812183211905803e-07 8.7288913738652458e-08 0.0000000000000000e+00  -1.8050979982134948e-07 1.0104478433614168e-07 0.0000000000000000e+00  -1.9393224369370437e-07 1.1021336219723457e-07 0.0000000000000000e+00  -2.0718462803338290e-07 1.1353820025131295e-07 0.0000000000000000e+00  -2.1879749852602753e-07 1.1024332269907356e-07 0.0000000000000000e+00  -2.2731265613162851e-07 1.0022511830046709e-07 0.0000000000000000e+00  -2.3153559713980185e-07 8.4061024401162250e-08 0.0000000000000000e+00  -2.3079010568616501e-07 6.2842649065433242e-08 0.0000000000000000e+00  -2.2487240529101206e-07 3.7925271557934998e-08 0.0000000000000000e+00  -2.1421370450877291e-07 1.0650831110095471e-08 0.0000000000000000e+00  -1.9927738790886846e-07 -1.7795557179542299e-08 0.0000000000000000e+00  -1.8134098669700132e-07 -4.6567462233136354e-08 0.0000000000000000e+00  -1.6046148526599980e-07 -7.4926503514191778e-08 0.0000000000000000e+00  -1.3929867966394647e-07 -1.0264492839052354e-07 0.0000000000000000e+00  -1.1519929723506795e-07 -1.2882495456649032e-07 0.0000000000000000e+00  -9.6286253197810685e-08 -1.5405567898394472e-07 0.0000000000000000e+00  -6.9025480980732471e-08 -1.7533058966508324e-07 0.0000000000000000e+00  -6.3964400736939123e-08 -1.9643253412780282e-07 0.0000000000000000e+00  -2.3631949962183073e-08 -2.0557063989350027e-07 0.0000000000000000e+00  -6.7575028427480115e-08 -2.2199437378789806e-07 0.0000000000000000e+00  3.6675488596326414e-08 -1.9936133796993678e-07 0.0000000000000000e+00  -1.7702031083614063e-07 -2.2581494516339448e-07 0.0000000000000000e+00  1.9828351955382382e-07 -1.1985432255840532e-07 0.0000000000000000e+00  -6.3499490259941884e-07 -2.5019860832272218e-07 0.0000000000000000e+00  6.6813545718213483e-07 9.5939503154103703e-08 0.0000000000000000e+00  -2.7616789544391847e-06 -4.6599165908206917e-07 0.0000000000000000e+00  2.1215038696746434e-06 1.0874150320867470e-06 0.0000000000000000e+00  0.0000000000000000e+00 0.0000000000000000e+00 0.0000000000000000e+00  0.0000000000000000e+00 0.0000000000000000e+00 0.0000000000000000e+00  -2.3735274098494474e-06 1.0767729318362741e-06 0.0000000000000000e+00  2.6921079999555429e-06 -1.6937827190791802e-07 0.0000000000000000e+00  -7.4799455011969359e-07 2.9612783390292184e-07 0.0000000000000000e+00  5.2732742843815668e-07 -3.2035214807329281e-08 0.0000000000000000e+00  -1.5125043069398988e-07 2.7405833650142161e-08 0.0000000000000000e+00  6.5900400499531298e-08 -7.8327674410362827e-08 0.0000000000000000e+00  -4.2240788364901310e-08 -9.3263815078293185e-08 0.0000000000000000e+00  -5.1300845491910749e-08 -1.1835367155665350e-07 0.0000000000000000e+00  -7.4670192271170492e-08 -1.2088299588339270e-07 0.0000000000000000e+00  -9.3478153779051007e-08 -1.1594754432308256e-07 0.0000000000000000e+00  -1.0584233383546599e-07 -1.0360119827686851e-07 0.0000000000000000e+00  -1.1599800167207282e-07 -8.7095710323012012e-08 0.0000000000000000e+00  -1.2357083372771874e-07 -6.8119074153263763e-08 0.0000000000000000e+00  -1.2965292632659907e-07 -4.7875362747838183e-08 0.0000000000000000e+00  -1.3487600958246872e-07 -2.7081120910187007e-08 0.0000000000000000e+00  -1.3968703067070774e-07 -6.0525634920070533e-09 0.0000000000000000e+00  -1.4452521077101412e-07 1.5131563454308648e-08 0.0000000000000000e+00  -1.4981083482431682e-07 3.6457535025816428e-08 0.0000000000000000e+00  -1.5598891534734316e-07 5.7739437839747374e-08 0.0000000000000000e+00  -1.6346027013357763e-07 7.8375579230383718e-08 0.0000000000000000e+00  -1.7241779558214933e-07 9.7189957325081466e-08 0.0000000000000000e+00  -1.8263626764023712e-07 1.1247396768659620e-07 0.0000000000000000e+00  -1.9331318263488211e-07 1.2228533995418290e-07 0.0000000000000000e+00  -2.0308803871085136e-07 1.2493252703584360e-07 0.0000000000000000e+00  -2.1027710450336585e-07 1.1945666516596370e-07 0.0000000000000000e+00  -2.1329173745665134e-07 1.0590522879246596e-07 0.0000000000000000e+00  -2.1101645572864937e-07 8.5296688842476538e-08 0.0000000000000000e+00  -2.0311819513231893e-07 5.9315114107245107e-08 0.0000000000000000e+00  -1.8994438765822305e-07 2.9898226905540153e-08 0.0000000000000000e+00  -1.7259398952141363e-07 -1.1600495907685360e-09 0.0000000000000000e+00  -1.5216024423225542e-07 -3.2400347939075783e-08 0.0000000000000000e+00  -1.3049632179529539e-07 -6.2863075295701206e-08 0.0000000000000000e+00  -1.0800897133105115e-07 -9.1801042727275931e-08 0.0000000000000000e+00  -8.7730954607995298e-08 -1.190140