<?xml version="1.0"?>
<VTKFile type="UnstructuredGrid"  version="0.1"  >
<UnstructuredGrid>
<Piece  NumberOfPoints="1617" NumberOfCells="3072">
<Points>
<DataArray  type="Float64"  NumberOfComponents="3"  format="ascii">0 0 0  0.03125 0 0  0.0625 0 0  0.09375 0 0  0.125 0 0  0.15625 0 0  0.1875 0 0  0.21875 0 0  0.25 0 0  0.28125 0 0  0.3125 0 0  0.34375 0 0  0.375 0 0  0.40625 0 0  0.4375 0 0  0.46875 0 0  0.5 0 0  0.53125 0 0  0.5625 0 0  0.59375 0 0  0.625 0 0  0.65625 0 0  0.6875 0 0  0.71875 0 0  0.75 0 0  0.78125 0 0  0.8125 0 0  0.84375 0 0  0.875 0 0  0.90625 0 0  0.9375 0 0  0.96875 0 0  1 0 0  1.03125 0 0  1.0625 0 0  1.09375 0 0  1.125 0 0  1.15625 0 0  1.1875 0 0  1.21875 0 0  1.25 0 0  1.28125 0 0  1.3125 0 0  1.34375 0 0  1.375 0 0  1.40625 0 0  1.4375 0 0  1.46875 0 0  1.5 0 0  0 0.03125 0  0.03125 0.03125 0  0.0625 0.03125 0  0.09375 0.03125 0  0.125 0.03125 0  0.15625 0.03125 0  0.1875 0.03125 0  0.21875 0.03125 0  0.25 0.03125 0  0.28125 0.03125 0  0.3125 0.03125 0  0.34375 0.03125 0  0.375 0.03125 0  0.40625 0.03125 0  0.4375 0.03125 0  0.46875 0.03125 0  0.5 0.03125 0  0.53125 0.03125 0  0.5625 0.03125 0  0.59375 0.03125 0  0.625 0.03125 0  0.65625 0.03125 0  0.6875 0.03125 0  0.71875 0.03125 0  0.75 0.03125 0  0.78125 0.03125 0  0.8125 0.03125 0  0.84375 0.03125 0  0.875 0.03125 0  0.90625 0.03125 0  0.9375 0.03125 0  0.96875 0.03125 0  1 0.03125 0  1.03125 0.03125 0  1.0625 0.03125 0  1.09375 0.03125 0  1.125 0.03125 0  1.15625 0.03125 0  1.1875 0.03125 0  1.21875 0.03125 0  1.25 0.03125 0  1.28125 0.03125 0  1.3125 0.03125 0  1.34375 0.03125 0  1.375 0.03125 0  1.40625 0.03125 0  1.4375 0.03125 0  1.46875 0.03125 0  1.5 0.03125 0  0 0.0625 0  0.03125 0.0625 0  0.0625 0.0625 0  0.09375 0.0625 0  0.125 0.0625 0  0.15625 0.0625 0  0.1875 0.0625 0  0.21875 0.0625 0  0.25 0.0625 0  0.28125 0.0625 0  0.3125 0.0625 0  0.34375 0.0625 0  0.375 0.0625 0  0.40625 0.0625 0  0.4375 0.0625 0  0.46875 0.0625 0  0.5 0.0625 0  0.53125 0.0625 0  0.5625 0.0625 0  0.59375 0.0625 0  0.625 0.0625 0  0.65625 0.0625 0  0.6875 0.0625 0  0.71875 0.0625 0  0.75 0.0625 0  0.78125 0.0625 0  0.8125 0.0625 0  0.84375 0.0625 0  0.875 0.0625 0  0.90625 0.0625 0  0.9375 0.0625 0  0.96875 0.0625 0  1 0.0625 0  1.03125 0.0625 0  1.0625 0.0625 0  1.09375 0.0625 0  1.125 0.0625 0  1.15625 0.0625 0  1.1875 0.0625 0  1.21875 0.0625 0  1.25 0.0625 0  1.28125 0.0625 0  1.3125 0.0625 0  1.34375 0.0625 0  1.375 0.0625 0  1.40625 0.0625 0  1.4375 0.0625 0  1.46875 0.0625 0  1.5 0.0625 0  0 0.09375 0  0.03125 0.09375 0  0.0625 0.09375 0  0.09375 0.09375 0  0.125 0.09375 0  0.15625 0.09375 0  0.1875 0.09375 0  0.21875 0.09375 0  0.25 0.09375 0  0.28125 0.09375 0  0.3125 0.09375 0  0.34375 0.09375 0  0.375 0.09375 0  0.40625 0.09375 0  0.4375 0.09375 0  0.46875 0.09375 0  0.5 0.09375 0  0.53125 0.09375 0  0.5625 0.09375 0  0.59375 0.09375 0  0.625 0.09375 0  0.65625 0.09375 0  0.6875 0.09375 0  0.71875 0.09375 0  0.75 0.09375 0  0.78125 0.09375 0  0.8125 0.09375 0  0.84375 0.09375 0  0.875 0.09375 0  0.90625 0.09375 0  0.9375 0.09375 0  0.96875 0.09375 0  1 0.09375 0  1.03125 0.09375 0  1.0625 0.09375 0  1.09375 0.09375 0  1.125 0.09375 0  1.15625 0.09375 0  1.1875 0.09375 0  1.21875 0.09375 0  1.25 0.09375 0  1.28125 0.09375 0  1.3125 0.09375 0  1.34375 0.09375 0  1.375 0.09375 0  1.40625 0.09375 0  1.4375 0.09375 0  1.46875 0.09375 0  1.5 0.09375 0  0 0.125 0  0.03125 0.125 0  0.0625 0.125 0  0.09375 0.125 0  0.125 0.125 0  0.15625 0.125 0  0.1875 0.125 0  0.21875 0.125 0  0.25 0.125 0  0.28125 0.125 0  0.3125 0.125 0  0.34375 0.125 0  0.375 0.125 0  0.40625 0.125 0  0.4375 0.125 0  0.46875 0.125 0  0.5 0.125 0  0.53125 0.125 0  0.5625 0.125 0  0.59375 0.125 0  0.625 0.125 0  0.65625 0.125 0  0.6875 0.125 0  0.71875 0.125 0  0.75 0.125 0  0.78125 0.125 0  0.8125 0.125 0  0.84375 0.125 0  0.875 0.125 0  0.90625 0.125 0  0.9375 0.125 0  0.96875 0.125 0  1 0.125 0  1.03125 0.125 0  1.0625 0.125 0  1.09375 0.125 0  1.125 0.125 0  1.15625 0.125 0  1.1875 0.125 0  1.21875 0.125 0  1.25 0.125 0  1.28125 0.125 0  1.3125 0.125 0  1.34375 0.125 0  1.375 0.125 0  1.40625 0.125 0  1.4375 0.125 0  1.46875 0.125 0  1.5 0.125 0  0 0.15625 0  0.03125 0.15625 0  0.0625 0.15625 0  0.09375 0.15625 0  0.125 0.15625 0  0.15625 0.15625 0  0.1875 0.15625 0  0.21875 0.15625 0  0.25 0.15625 0  0.28125 0.15625 0  0.3125 0.15625 0  0.34375 0.15625 0  0.375 0.15625 0  0.40625 0.15625 0  0.4375 0.15625 0  0.46875 0.15625 0  0.5 0.15625 0  0.53125 0.15625 0  0.5625 0.15625 0  0.59375 0.15625 0  0.625 0.15625 0  0.65625 0.15625 0  0.6875 0.15625 0  0.71875 0.15625 0  0.75 0.15625 0  0.78125 0.15625 0  0.8125 0.15625 0  0.84375 0.15625 0  0.875 0.15625 0  0.90625 0.15625 0  0.9375 0.15625 0  0.96875 0.15625 0  1 0.15625 0  1.03125 0.15625 0  1.0625 0.15625 0  1.09375 0.15625 0  1.125 0.15625 0  1.15625 0.15625 0  1.1875 0.15625 0  1.21875 0.15625 0  1.25 0.15625 0  1.28125 0.15625 0  1.3125 0.15625 0  1.34375 0.15625 0  1.375 0.15625 0  1.40625 0.15625 0  1.4375 0.15625 0  1.46875 0.15625 0  1.5 0.15625 0  0 0.1875 0  0.03125 0.1875 0  0.0625 0.1875 0  0.09375 0.1875 0  0.125 0.1875 0  0.15625 0.1875 0  0.1875 0.1875 0  0.21875 0.1875 0  0.25 0.1875 0  0.28125 0.1875 0  0.3125 0.1875 0  0.34375 0.1875 0  0.375 0.1875 0  0.40625 0.1875 0  0.4375 0.1875 0  0.46875 0.1875 0  0.5 0.1875 0  0.53125 0.1875 0  0.5625 0.1875 0  0.59375 0.1875 0  0.625 0.1875 0  0.65625 0.1875 0  0.6875 0.1875 0  0.71875 0.1875 0  0.75 0.1875 0  0.78125 0.1875 0  0.8125 0.1875 0  0.84375 0.1875 0  0.875 0.1875 0  0.90625 0.1875 0  0.9375 0.1875 0  0.96875 0.1875 0  1 0.1875 0  1.03125 0.1875 0  1.0625 0.1875 0  1.09375 0.1875 0  1.125 0.1875 0  1.15625 0.1875 0  1.1875 0.1875 0  1.21875 0.1875 0  1.25 0.1875 0  1.28125 0.1875 0  1.3125 0.1875 0  1.34375 0.1875 0  1.375 0.1875 0  1.40625 0.1875 0  1.4375 0.1875 0  1.46875 0.1875 0  1.5 0.1875 0  0 0.21875 0  0.03125 0.21875 0  0.0625 0.21875 0  0.09375 0.21875 0  0.125 0.21875 0  0.15625 0.21875 0  0.1875 0.21875 0  0.21875 0.21875 0  0.25 0.21875 0  0.28125 0.21875 0  0.3125 0.21875 0  0.34375 0.21875 0  0.375 0.21875 0  0.40625 0.21875 0  0.4375 0.21875 0  0.46875 0.21875 0  0.5 0.21875 0  0.53125 0.21875 0  0.5625 0.21875 0  0.59375 0.21875 0  0.625 0.21875 0  0.65625 0.21875 0  0.6875 0.21875 0  0.71875 0.21875 0  0.75 0.21875 0  0.78125 0.21875 0  0.8125 0.21875 0  0.84375 0.21875 0  0.875 0.21875 0  0.90625 0.21875 0  0.9375 0.21875 0  0.96875 0.21875 0  1 0.21875 0  1.03125 0.21875 0  1.0625 0.21875 0  1.09375 0.21875 0  1.125 0.21875 0  1.15625 0.21875 0  1.1875 0.21875 0  1.21875 0.21875 0  1.25 0.21875 0  1.28125 0.21875 0  1.3125 0.21875 0  1.34375 0.21875 0  1.375 0.21875 0  1.40625 0.21875 0  1.4375 0.21875 0  1.46875 0.21875 0  1.5 0.21875 0  0 0.25 0  0.03125 0.25 0  0.0625 0.25 0  0.09375 0.25 0  0.125 0.25 0  0.15625 0.25 0  0.1875 0.25 0  0.21875 0.25 0  0.25 0.25 0  0.28125 0.25 0  0.3125 0.25 0  0.34375 0.25 0  0.375 0.25 0  0.40625 0.25 0  0.4375 0.25 0  0.46875 0.25 0  0.5 0.25 0  0.53125 0.25 0  0.5625 0.25 0  0.59375 0.25 0  0.625 0.25 0  0.65625 0.25 0  0.6875 0.25 0  0.71875 0.25 0  0.75 0.25 0  0.78125 0.25 0  0.8125 0.25 0  0.84375 0.25 0  0.875 0.25 0  0.90625 0.25 0  0.9375 0.25 0  0.96875 0.25 0  1 0.25 0  1.03125 0.25 0  1.0625 0.25 0  1.09375 0.25 0  1.125 0.25 0  1.15625 0.25 0  1.1875 0.25 0  1.21875 0.25 0  1.25 0.25 0  1.28125 0.25 0  1.3125 0.25 0  1.34375 0.25 0  1.375 0.25 0  1.40625 0.25 0  1.4375 0.25 0  1.46875 0.25 0  1.5 0.25 0  0 0.28125 0  0.03125 0.28125 0  0.0625 0.28125 0  0.09375 0.28125 0  0.125 0.28125 0  0.15625 0.28125 0  0.1875 0.28125 0  0.21875 0.28125 0  0.25 0.28125 0  0.28125 0.28125 0  0.3125 0.28125 0  0.34375 0.28125 0  0.375 0.28125 0  0.40625 0.28125 0  0.4375 0.28125 0  0.46875 0.28125 0  0.5 0.28125 0  0.53125 0.28125 0  0.5625 0.28125 0  0.59375 0.28125 0  0.625 0.28125 0  0.65625 0.28125 0  0.6875 0.28125 0  0.71875 0.28125 0  0.75 0.28125 0  0.78125 0.28125 0  0.8125 0.28125 0  0.84375 0.28125 0  0.875 0.28125 0  0.90625 0.28125 0  0.9375 0.28125 0  0.96875 0.28125 0  1 0.28125 0  1.03125 0.28125 0  1.0625 0.28125 0  1.09375 0.28125 0  1.125 0.28125 0  1.15625 0.28125 0  1.1875 0.28125 0  1.21875 0.28125 0  1.25 0.28125 0  1.28125 0.28125 0  1.3125 0.28125 0  1.34375 0.28125 0  1.375 0.28125 0  1.40625 0.28125 0  1.4375 0.28125 0  1.46875 0.28125 0  1.5 0.28125 0  0 0.3125 0  0.03125 0.3125 0  0.0625 0.3125 0  0.09375 0.3125 0  0.125 0.3125 0  0.15625 0.3125 0  0.1875 0.3125 0  0.21875 0.3125 0  0.25 0.3125 0  0.28125 0.3125 0  0.3125 0.3125 0  0.34375 0.3125 0  0.375 0.3125 0  0.40625 0.3125 0  0.4375 0.3125 0  0.46875 0.3125 0  0.5 0.3125 0  0.53125 0.3125 0  0.5625 0.3125 0  0.59375 0.3125 0  0.625 0.3125 0  0.65625 0.3125 0  0.6875 0.3125 0  0.71875 0.3125 0  0.75 0.3125 0  0.78125 0.3125 0  0.8125 0.3125 0  0.84375 0.3125 0  0.875 0.3125 0  0.90625 0.3125 0  0.9375 0.3125 0  0.96875 0.3125 0  1 0.3125 0  1.03125 0.3125 0  1.0625 0.3125 0  1.09375 0.3125 0  1.125 0.3125 0  1.15625 0.3125 0  1.1875 0.3125 0  1.21875 0.3125 0  1.25 0.3125 0  1.28125 0.3125 0  1.3125 0.3125 0  1.34375 0.3125 0  1.375 0.3125 0  1.40625 0.3125 0  1.4375 0.3125 0  1.46875 0.3125 0  1.5 0.3125 0  0 0.34375 0  0.03125 0.34375 0  0.0625 0.34375 0  0.09375 0.34375 0  0.125 0.34375 0  0.15625 0.34375 0  0.1875 0.34375 0  0.21875 0.34375 0  0.25 0.34375 0  0.28125 0.34375 0  0.3125 0.34375 0  0.34375 0.34375 0  0.375 0.34375 0  0.40625 0.34375 0  0.4375 0.34375 0  0.46875 0.34375 0  0.5 0.34375 0  0.53125 0.34375 0  0.5625 0.34375 0  0.59375 0.34375 0  0.625 0.34375 0  0.65625 0.34375 0  0.6875 0.34375 0  0.71875 0.34375 0  0.75 0.34375 0  0.78125 0.34375 0  0.8125 0.34375 0  0.84375 0.34375 0  0.875 0.34375 0  0.90625 0.34375 0  0.9375 0.34375 0  0.96875 0.34375 0  1 0.34375 0  1.03125 0.34375 0  1.0625 0.34375 0  1.09375 0.34375 0  1.125 0.34375 0  1.15625 0.34375 0  1.1875 0.34375 0  1.21875 0.34375 0  1.25 0.34375 0  1.28125 0.34375 0  1.3125 0.34375 0  1.34375 0.34375 0  1.375 0.34375 0  1
[...]
<PointData  Vectors="f_17"> 
<DataArray  type="Float64"  Name="f_17"  NumberOfComponents="3" format="ascii">0.0000000000000000e+00 0.0000000000000000e+00 0.0000000000000000e+00  0.0000000000000000e+00 0.0000000000000000e+00 0.0000000000000000e+00  0.0000000000000000e+00 0.0000000000000000e+00 0.0000000000000000e+00  0.0000000000000000e+00 0.0000000000000000e+00 0.0000000000000000e+00  0.0000000000000000e+00 0.0000000000000000e+00 0.0000000000000000e+00  0.0000000000000000e+00 0.0000000000000000e+00 0.0000000000000000e+00  0.0000000000000000e+00 0.0000000000000000e+00 0.0000000000000000e+00  0.0000000000000000e+00 0.0000000000000000e+00 0.0000000000000000e+00  0.0000000000000000e+00 0.0000000000000000e+00 0.0000000000000000e+00  0.0000000000000000e+00 0.0000000000000000e+00 0.0000000000000000e+00  0.0000000000000000e+00 0.0000000000000000e+00 0.0000000000000000e+00  0.0000000000000000e+00 0.0000000000000000e+00 0.0000000000000000e+00  0.0000000000000000e+00 0.0000000000000000e+00 0.0000000000000000e+00  0.0000000000000000e+00 0.0000000000000000e+00 0.0000000000000000e+00  0.0000000000000000e+00 0.0000000000000000e+00 0.0000000000000000e+00  0.0000000000000000e+00 0.0000000000000000e+00 0.0000000000000000e+00  0.0000000000000000e+00 0.0000000000000000e+00 0.0000000000000000e+00  0.0000000000000000e+00 0.0000000000000000e+00 0.0000000000000000e+00  0.0000000000000000e+00 0.0000000000000000e+00 0.0000000000000000e+00  0.0000000000000000e+00 0.0000000000000000e+00 0.0000000000000000e+00  0.0000000000000000e+00 0.0000000000000000e+00 0.0000000000000000e+00  0.0000000000000000e+00 0.0000000000000000e+00 0.0000000000000000e+00  0.0000000000000000e+00 0.0000000000000000e+00 0.0000000000000000e+00  0.0000000000000000e+00 0.0000000000000000e+00 0.0000000000000000e+00  0.0000000000000000e+00 0.0000000000000000e+00 0.0000000000000000e+00  0.0000000000000000e+00 0.0000000000000000e+00 0.0000000000000000e+00  0.0000000000000000e+00 0.0000000000000000e+00 0.0000000000000000e+00  0.0000000000000000e+00 0.0000000000000000e+00 0.0000000000000000e+00  0.0000000000000000e+00 0.0000000000000000e+00 0.0000000000000000e+00  0.0000000000000000e+00 0.0000000000000000e+00 0.0000000000000000e+00  0.0000000000000000e+00 0.0000000000000000e+00 0.0000000000000000e+00  0.0000000000000000e+00 0.0000000000000000e+00 0.0000000000000000e+00  0.0000000000000000e+00 0.0000000000000000e+00 0.0000000000000000e+00  0.0000000000000000e+00 0.0000000000000000e+00 0.0000000000000000e+00  0.0000000000000000e+00 0.0000000000000000e+00 0.0000000000000000e+00  0.0000000000000000e+00 0.0000000000000000e+00 0.0000000000000000e+00  0.0000000000000000e+00 0.0000000000000000e+00 0.0000000000000000e+00  0.0000000000000000e+00 0.0000000000000000e+00 0.0000000000000000e+00  0.0000000000000000e+00 0.0000000000000000e+00 0.0000000000000000e+00  0.0000000000000000e+00 0.0000000000000000e+00 0.0000000000000000e+00  0.0000000000000000e+00 0.0000000000000000e+00 0.0000000000000000e+00  0.0000000000000000e+00 0.0000000000000000e+00 0.0000000000000000e+00  0.0000000000000000e+00 0.0000000000000000e+00 0.0000000000000000e+00  0.0000000000000000e+00 0.0000000000000000e+00 0.0000000000000000e+00  0.0000000000000000e+00 0.0000000000000000e+00 0.0000000000000000e+00  0.0000000000000000e+00 0.0000000000000000e+00 0.0000000000000000e+00  0.0000000000000000e+00 0.0000000000000000e+00 0.0000000000000000e+00  0.0000000000000000e+00 0.0000000000000000e+00 0.0000000000000000e+00  0.0000000000000000e+00 0.0000000000000000e+00 0.0000000000000000e+00  0.0000000000000000e+00 0.0000000000000000e+00 0.0000000000000000e+00  -4.4686580830644825e-08 -4.0434636435683249e-08 0.0000000000000000e+00  -1.0328754987618591e-07 9.5824092681294713e-08 0.0000000000000000e+00  -9.7571735015308235e-09 -1.2962793330074769e-08 0.0000000000000000e+00  -1.9720734409629547e-07 -4.5331224656150250e-08 0.0000000000000000e+00  -1.8214902738640726e-07 -7.1381671495302524e-08 0.0000000000000000e+00  -1.7257242607510316e-07 -7.6822635387071900e-08 0.0000000000000000e+00  -1.6695672635756494e-07 -7.0284925484076513e-08 0.0000000000000000e+00  -1.5033792227563888e-07 -6.1191642471794951e-08 0.0000000000000000e+00  -1.3458673335695800e-07 -5.0977735634651003e-08 0.0000000000000000e+00  -1.1990797432956096e-07 -4.0832040646283066e-08 0.0000000000000000e+00  -1.0761566774151620e-07 -3.1198638137592360e-08 0.0000000000000000e+00  -9.8949337316183145e-08 -2.2164965688397919e-08 0.0000000000000000e+00  -9.4340504577942331e-08 -1.3745837951592943e-08 0.0000000000000000e+00  -9.4112914100551714e-08 -5.8821991925317245e-09 0.0000000000000000e+00  -9.8448557779654538e-08 1.5224812662943150e-09 0.0000000000000000e+00  -1.0745785862294077e-07 8.5726987757407977e-09 0.0000000000000000e+00  -1.2122808786683438e-07 1.5350588177090708e-08 0.0000000000000000e+00  -1.3981459081277590e-07 2.1881515092000670e-08 0.0000000000000000e+00  -1.6320444304381683e-07 2.8102214263331427e-08 0.0000000000000000e+00  -1.9124975399747198e-07 3.3840783685150325e-08 0.0000000000000000e+00  -2.2358469975791123e-07 3.8818605370124832e-08 0.0000000000000000e+00  -2.5955010674733011e-07 4.2680618377493005e-08 0.0000000000000000e+00  -2.9814845983945791e-07 4.5051899575382933e-08 0.0000000000000000e+00  -3.3805560274001132e-07 4.5608418582464312e-08 0.0000000000000000e+00  -3.7768665191785916e-07 4.4143051233239197e-08 0.0000000000000000e+00  -4.1532712343158964e-07 4.0607189791343209e-08 0.0000000000000000e+00  -4.4926000571974709e-07 3.5118648578699572e-08 0.0000000000000000e+00  -4.7794576064302738e-07 2.7930854342091316e-08 0.0000000000000000e+00  -5.0004227053039308e-07 1.9388119981465943e-08 0.0000000000000000e+00  -5.1463193897665232e-07 9.8491109678598973e-09 0.0000000000000000e+00  -5.2086406410010865e-07 -3.2496305449318736e-10 0.0000000000000000e+00  -5.1866576186045609e-07 -1.0898791703841189e-08 0.0000000000000000e+00  -5.0713624099515407e-07 -2.1562254460104465e-08 0.0000000000000000e+00  -4.8769705378544911e-07 -3.2413801833634191e-08 0.0000000000000000e+00  -4.5739407908178534e-07 -4.2842331391988541e-08 0.0000000000000000e+00  -4.2261861552222537e-07 -5.3945715351212845e-08 0.0000000000000000e+00  -3.7071868625011774e-07 -6.3069083347556164e-08 0.0000000000000000e+00  -3.2846434986625283e-07 -7.5642208558782418e-08 0.0000000000000000e+00  -2.4212062493567213e-07 -7.9213461039525655e-08 0.0000000000000000e+00  -2.2283191054542255e-07 -9.9198275012337807e-08 0.0000000000000000e+00  -4.7374905716903823e-08 -7.9164478923062036e-08 0.0000000000000000e+00  -1.6947735535396826e-07 -1.3359088905104442e-07 0.0000000000000000e+00  3.1209464743150527e-07 -1.7252278650683977e-08 0.0000000000000000e+00  -4.2833029840919870e-07 -2.2652943056452928e-07 0.0000000000000000e+00  1.1208261364165315e-06 2.3948108286197628e-07 0.0000000000000000e+00  -2.4784102403387155e-06 -7.5504052700454975e-07 0.0000000000000000e+00  2.9267654407585604e-06 1.3294502286539501e-06 0.0000000000000000e+00  0.0000000000000000e+00 0.0000000000000000e+00 0.0000000000000000e+00  0.0000000000000000e+00 0.0000000000000000e+00 0.0000000000000000e+00  -1.4315418539227902e-06 5.9252198349928151e-07 0.0000000000000000e+00  8.1428064966152318e-07 -6.6036609126916514e-08 0.0000000000000000e+00  -4.6869906133447101e-08 8.7471704821699359e-08 0.0000000000000000e+00  -1.9403991954311512e-07 -2.0630064973349611e-08 0.0000000000000000e+00  -1.9854649853523924e-07 -6.7447957133222995e-08 0.0000000000000000e+00  -2.5324061421933824e-07 -8.8254027663906207e-08 0.0000000000000000e+00  -2.5137981884245028e-07 -9.3073815605187366e-08 0.0000000000000000e+00  -2.4078998921753859e-07 -8.9021667923468404e-08 0.0000000000000000e+00  -2.2662146659056227e-07 -7.9787595758357107e-08 0.0000000000000000e+00  -2.0986882150624607e-07 -6.7874701591445128e-08 0.0000000000000000e+00  -1.9497630829844456e-07 -5.4587774502964054e-08 0.0000000000000000e+00  -1.8305447704943647e-07 -4.0732091381639730e-08 0.0000000000000000e+00  -1.7498845111956206e-07 -2.6786515794400568e-08 0.0000000000000000e+00  -1.7133643324279604e-07 -1.2989515177339056e-08 0.0000000000000000e+00  -1.7234869137967420e-07 5.7566333138561645e-10 0.0000000000000000e+00  -1.7817784657928323e-07 1.3911532180082337e-08 0.0000000000000000e+00  -1.8890877569990649e-07 2.7035169253319342e-08 0.0000000000000000e+00  -2.0457894420825187e-07 3.9899954811821581e-08 0.0000000000000000e+00  -2.2515412194074853e-07 5.2320196682198156e-08 0.0000000000000000e+00  -2.5045997384161727e-07 6.3916401339731747e-08 0.0000000000000000e+00  -2.8008862420070419e-07 7.4103441498105265e-08 0.0000000000000000e+00  -3.1330762950696300e-07 8.2138758383341411e-08 0.0000000000000000e+00  -3.4900423032368682e-07 8.7230360859737399e-08 0.0000000000000000e+00  -3.8570188787080295e-07 8.8681412736714130e-08 0.0000000000000000e+00  -4.2164902913302694e-07 8.6030816721633867e-08 0.0000000000000000e+00  -4.5498936850615932e-07 7.9146231318768280e-08 0.0000000000000000e+00  -4.8392576038376383e-07 6.8244947420618264e-08 0.0000000000000000e+00  -5.0693229081979173e-07 5.3836017205491717e-08 0.0000000000000000e+00  -5.2277085541054823e-07 3.6621618417891056e-08 0.0000000000000000e+00  -5.3072147855176154e-07 1.7356747330458393e-08 0.0000000000000000e+00  -5.3016500262093065e-07 -3.2156708884259468e-09 0.0000000000000000e+00  -5.2132566097859898e-07 -2.4528944820655213e-08 0.0000000000000000e+00  -5.0353576111799587e-07 -4.6003559908498649e-08 0.0000000000000000e+00  -4.7857302263306812e-07 -6.7514964155633961e-08 0.0000000000000000e+00  -4.4362844426674510e-07 -8.8281272545866706e-08 0.0000000000000000e+00  -4.0562739437823159e-07 -1.0915296350042741e-07 0.0000000000000000e+00  -3.5191684101559914e-07 -1.2738425904145420e-07 0.0000000000000000e+00  -3.1024205551386714e-07 -1.4770112809318137e-07 0.0000000000000000e+00  -2.2678511928560446e-07 -1.5812501623248865e-07 0.0000000000000000e+00  -2.1403227355149551e-07 -1.8121092819678981e-07 0.0000000000000000e+00  -4.9937789228052916e-08 -1.6491777731807276e-07 0.0000000000000000e+00  -1.8721621023749943e-07 -2.1159184108549716e-07 0.0000000000000000e+00  2.6402607045799754e-07 -1.0173240108178189e-07 0.0000000000000000e+00  -4.9638500788489665e-07 -2.8088783822509044e-07 0.0000000000000000e+00  9.4101643605203406e-07 1.4171597023553227e-07 0.0000000000000000e+00  -2.4874495763819008e-06 -6.3733100823363303e-07 0.0000000000000000e+00  2.8537951967213672e-06 1.3340084296688768e-06 0.0000000000000000e+00  0.0000000000000000e+00 0.0000000000000000e+00 0.0000000000000000e+00  0.0000000000000000e+00 0.0000000000000000e+00 0.0000000000000000e+00  -2.5265768676660713e-06 1.0491683319780921e-06 0.0000000000000000e+00  1.7511458550432896e-06 -1.8708174345114314e-07 0.0000000000000000e+00  -3.3750278148070780e-07 2.2626268563014663e-07 0.0000000000000000e+00  7.1196702321642607e-08 -1.2716287958802111e-08 0.0000000000000000e+00  -6.1984632933112284e-08 -3.2925611480731542e-08 0.0000000000000000e+00  -1.1332310083693888e-07 -7.9428918270941749e-08 0.0000000000000000e+00  -1.2617955758697802e-07 -9.4613508568793468e-08 0.0000000000000000e+00  -1.5094617667033193e-07 -9.6934744415833632e-08 0.0000000000000000e+00  -1.6141577031888345e-07 -9.0348273674016721e-08 0.0000000000000000e+00  -1.6764894959273142e-07 -7.8333752231129370e-08 0.0000000000000000e+00  -1.7166865029599074e-07 -6.3265728698525240e-08 0.0000000000000000e+00  -1.7449004179642187e-07 -4.6598959312940898e-08 0.0000000000000000e+00  -1.7778186874999558e-07 -2.9249822241236628e-08 0.0000000000000000e+00  -1.8234628612070274e-07 -1.1732787500426273e-08 0.0000000000000000e+00  -1.8879732441406647e-07 5.7109592501796496e-09 0.0000000000000000e+00  -1.9758189551084260e-07 2.3011658347930120e-08 0.0000000000000000e+00  -2.0902536153522791e-07 4.0164789922466159e-08 0.0000000000000000e+00  -2.2339025130416458e-07 5.7109944927316155e-08 0.0000000000000000e+00  -2.4085911336258978e-07 7.3607035927112646e-08 0.0000000000000000e+00  -2.6147265807867706e-07 8.9135683407940398e-08 0.0000000000000000e+00  -2.8502670661715680e-07 1.0285810113925344e-07 0.0000000000000000e+00  -3.1096274864279153e-07 1.1368026696144876e-07 0.0000000000000000e+00  -3.3829960565789229e-07 1.2041747508948081e-07 0.0000000000000000e+00  -3.6565869831213820e-07 1.2202759316397461e-07 0.0000000000000000e+00  -3.9138874286666156e-07 1.1784071307891748e-07 0.0000000000000000e+00  -4.1379164570763439e-07 1.0770786028459730e-07 0.0000000000000000e+00  -4.3133645149917127e-07 9.2024832054216506e-08 0.0000000000000000e+00  -4.4290009842588844e-07 7.1627351514728488e-08 0.0000000000000000e+00  -4.4776783604983479e-07 4.7617985912235434e-08 0.0000000000000000e+00  -4.4583427423419271e-07 2.1149354944251753e-08 0.0000000000000000e+00  -4.3711127292614845e-07 -6.6938967811677184e-09 0.0000000000000000e+00  -4.2246556349926308e-07 -3.5088274954253598e-08 0.0000000000000000e+00  -4.0177532609597140e-07 -6.3272835204309532e-08 0.0000000000000000e+00  -3.7740918386192192e-07 -9.1006542765313546e-08 0.0000000000000000e+00  -3.4692966587173857e-07 -1.1740622887366420e-07 0.0000000000000000e+00  -3.1792334374056142e-07 -1.4321972151262691e-07 0.0000000000000000e+00  -2.7785006123007101e-07 -1.6557768238562166e-07 0.0000000000000000e+00  -2.5543527231112777e-07 -1.8891288233864225e-07 0.0000000000000000e+00  -1.9652265827866886e-07 -2.0132930237061900e-07 0.0000000000000000e+00  -2.1470138728309528e-07 -2.2421407780021401e-07 0.0000000000000000e+00  -8.8018238422881402e-08 -2.0822570593828898e-07 0.0000000000000000e+00  -2.6536337483614100e-07 -2.4972175969827450e-07 0.0000000000000000e+00  1.3142888337431937e-07 -1.4875642733920342e-07 0.0000000000000000e+00  -6.5702419741560722e-07 -3.1324635507094392e-07 0.0000000000000000e+00  6.9906250542859893e-07 5.3200464284439258e-08 0.0000000000000000e+00  -2.6542908237912452e-06 -6.1707645128753593e-07 0.0000000000000000e+00  2.4965288468139326e-06 1.1030478584323847e-06 0.0000000000000000e+00  0.0000000000000000e+00 0.0000000000000000e+00 0.0000000000000000e+00  0.0000000000000000e+00 0.0000000000000000e+00 0.0000000000000000e+00  -2.7911902960477540e-06 1.0888183733599351e-06 0.0000000000000000e+00  2.3496880364657859e-06 -2.3099245354466710e-07 0.0000000000000000e+00  -6.6042279083942589e-07 2.8867010973878608e-07 0.0000000000000000e+00  3.1856959009286813e-07 -1.5781433807948809e-08 0.0000000000000000e+00  -9.9656443534966536e-08 2.5725512644375095e-08 0.0000000000000000e+00  -3.6365590315714198e-08 -4.8642693825665243e-08 0.0000000000000000e+00  -7.8745734959377545e-08 -6.4451076838902659e-08 0.0000000000000000e+00  -1.1009575826908396e-07 -7.7305755238103094e-08 0.0000000000000000e+00  -1.2753273214755466e-07 -7.6830880691421464e-08 0.0000000000000000e+00  -1.4501105475873613e-07 -6.9272291297438012e-08 0.0000000000000000e+00  -1.5758988600957828e-07 -5.6746993836876717e-08 0.0000000000000000e+00  -1.6805396526346320e-07 -4.1140245139823281e-08 0.0000000000000000e+00  -1.7747432153408672e-07 -2.3780675111292680e-08 0.0000000000000000e+00  -1.8651134210574083e-07 -5.4855213664620298e-09 0.0000000000000000e+00  -1.9586414498735603e-07 1.3271249110246331e-08 0.0000000000000000e+00  -2.0598455943772671e-07 3.2282681467348827e-08 0.0000000000000000e+00  -2.1726355393097256e-07 5.1476435006339632e-08 0.0000000000000000e+00  -2.3006040961412836e-07 7.0758234811628061e-08 0.0000000000000000e+00  -2.4469368886223527e-07 8.9831205957095238e-08 0.0000000000000000e+00  -2.6137446197695240e-07 1.0802964158255051e-07 0.0000000000000000e+00  -2.8006906127691373e-07 1.2423605636774544e-07 0.0000000000000000e+00  -3.0034229232827170e-07 1.3694838928591724e-07 0.0000000000000000e+00  -3.2125098780641653e-07 1.4452030250318226e-07 0.0000000000000000e+00  -3.4137215483450673e-07 1.4551930665353255e-07 0.0000000000000000e+00  -3.5898399425826240e-07 1.3908056664351035e-07 0.0000000000000000e+00  -3.7238774556181211e-07 1.2512357513634861e-07 0.0000000000000000e+00  -3.8020769006813583e-07 1.0435991834984160e-07 0.0000000000000000e+00  -3.8167958059292388e-07 7.8101706278215567e-08 0.0000000000000000e+00  -3.7661607453262432e-07 4.7972366459830614e-08 0.0000000000000000e+00  -3.6555911926367816e-07 1.5588993076414239e-08 0.0000000000000000e+00  -3.4915290652429273e-07 -1.7614309014879362e-08 0.0000000000000000e+00  -3.2889733881647758e-07 -5.0589694090527798e-08 0.0000000000000000e+00  -3.0508547131724150e-07 -8.2455258136850470e-08 0.0000000000000000e+00  -2.8060578179248828e-07 -1.1290104034630769e-07 0.0000000000000000e+00  -2.5300100432208670e-07 -1.4101073803731076e-07 0.0000000000000000e+00  -2.3054531098404597e-07 -1.6742713333388005e-07 0.0000000000000000e+00  -1.9974937340439600e-07 -1.8928941024634437e-07 0.0000000000000000e+00  -1.9112402554422385e-07 -2.1065998267983865e-07 0.0000000000000000e+00  -1.4682537004960618e-07 -2.2021543840613053e-07 0.0000000000000000e+00  -1.8611322188628162e-07 -2.3796744798779541e-07 0.0000000000000000e+00  -7.4940452187248074e-08 -2.1865846831832041e-07 0.0000000000000000e+00  -2.7994815384372114e-07 -2.5207452683855750e-07 0.0000000000000000e+00  1.1220245056935141e-07 -1.5845347992848021e-07 0.0000000000000000e+00  -7.0679236954920675e-07 -3.0862904095757810e-07 0.0000000000000000e+00  6.7232914869064998e-07 1.0154715505519771e-08 0.0000000000000000e+00  -2.6868904135254576e-06 -5.8146930261807199e-07 0.0000000000000000e+00  2.4893712583978018e-06 9.3805708138759648e-07 0.0000000000000000e+00  0.0000000000000000e+00 0.0000000000000000e+00 0.0000000000000000e+00  0.0000000000000000e+00 0.0000000000000000e+00 0.0000000000000000e+00  -2.7451779423201901e-06 9.8447407859534817e-07 0.0000000000000000e+00  2.5859993356600154e-06 -2.1927331344855612e-07 0.0000000000000000e+00  -8.1372704720814024e-07 2.7914153980843939e-07 0.0000000000000000e+00  5.1389167215204573e-07 -1.5470948173914423e-08 0.0000000000000000e+00  -1.6508001888238657e-07 6.8363953458634570e-08 0.0000000000000000e+00  5.8319792589954717e-08 -2.2211451447537654e-08 0.0000000000000000e+00  -4.8840543339615601e-08 -2.9155419647140358e-08 0.0000000000000000e+00  -5.8999999581103144e-08 -5.1462274915236215e-08 0.0000000000000000e+00  -8.5892868482585466e-08 -5.4321848652255649e-08 0.0000000000000000e+00  -1.0987745838482129e-07 -5.1464169717674659e-08 0.0000000000000000e+00  -1.2853401291007663e-07 -4.1965369530269029e-08 0.0000000000000000e+00  -1.4565949847078128e-07 -2.8491466148654656e-08 0.0000000000000000e+00  -1.6057653680450489e-07 -1.2395260940921275e-08 0.0000000000000000e+00  -1.7418266138492190e-07 5.2870927786481426e-09 0.0000000000000000e+00  -1.8699070939225803e-07 2.3909597901919330e-08 0.0000000000000000e+00  -1.9937956051774306e-07 4.3171443016579679e-08 0.0000000000000000e+00  -2.1175474549380891e-07 6.2974417462790357e-08 0.0000000000000000e+00  -2.2452580168816400e-07 8.3251597367182196e-08 0.0000000000000000e+00  -2.3813790697702671e-07 1.0371782334561703e-07 0.0000000000000000e+00  -2.5298450154430549e-07 1.2360958231193897e-07 0.0000000000000000e+00  -2.6921640161465893e-07 1.4151933074227407e-07 0.0000000000000000e+00  -2.8650069709699964e-07 1.5545401454244552e-07 0.0000000000000000e+00  -3.0384067431682284e-07 1.6318132287334437e-07 0.0000000000000000e+00  -3.1960129931997377e-07 1.6278218594268657e-07 0.0000000000000000e+00  -3.3178591507873292e-07 1.5319688948487849e-07 0.0000000000000000e+00  -3.3852213249327313e-07 1.3453275351278221e-07 0.0000000000000000e+00  -3.3850685750057706e-07 1.0802024555905798e-07 0.0000000000000000e+00  -3.3135530276103060e-07 7.5662923467625733e-08 0.0000000000000000e+00  -3.1750034227209324e-07 3.9763462455554243e-08 0.0000000000000000e+00  -2.9823364084801658e-07 2.4667922798936748e-09 0.0000000000000000e+00  -2.7490355100644346e-07 -3.4474379862816890e-08 0.0000000000000000e+00  -2.4963687418840728e-07 -6.9889098664882082e-08 0.0000000000000000e+00  -2.2309638941913383e-07 -1.0290924998751408e-07 0.0000000000000000e+00  -1.9853029775578872e-07 -1.3330410572642