<?xml version="1.0"?>
<VTKFile type="UnstructuredGrid"  version="0.1"  >
<UnstructuredGrid>
<Piece  NumberOfPoints="1617" NumberOfCells="3072">
<Points>
<DataArray  type="Float64"  NumberOfComponents="3"  format="ascii">0 0 0  0.03125 0 0  0.0625 0 0  0.09375 0 0  0.125 0 0  0.15625 0 0  0.1875 0 0  0.21875 0 0  0.25 0 0  0.28125 0 0  0.3125 0 0  0.34375 0 0  0.375 0 0  0.40625 0 0  0.4375 0 0  0.46875 0 0  0.5 0 0  0.53125 0 0  0.5625 0 0  0.59375 0 0  0.625 0 0  0.65625 0 0  0.6875 0 0  0.71875 0 0  0.75 0 0  0.78125 0 0  0.8125 0 0  0.84375 0 0  0.875 0 0  0.90625 0 0  0.9375 0 0  0.96875 0 0  1 0 0  1.03125 0 0  1.0625 0 0  1.09375 0 0  1.125 0 0  1.15625 0 0  1.1875 0 0  1.21875 0 0  1.25 0 0  1.28125 0 0  1.3125 0 0  1.34375 0 0  1.375 0 0  1.40625 0 0  1.4375 0 0  1.46875 0 0  1.5 0 0  0 0.03125 0  0.03125 0.03125 0  0.0625 0.03125 0  0.09375 0.03125 0  0.125 0.03125 0  0.15625 0.03125 0  0.1875 0.03125 0  0.21875 0.03125 0  0.25 0.03125 0  0.28125 0.03125 0  0.3125 0.03125 0  0.34375 0.03125 0  0.375 0.03125 0  0.40625 0.03125 0  0.4375 0.03125 0  0.46875 0.03125 0  0.5 0.03125 0  0.53125 0.03125 0  0.5625 0.03125 0  0.59375 0.03125 0  0.625 0.03125 0  0.65625 0.03125 0  0.6875 0.03125 0  0.71875 0.03125 0  0.75 0.03125 0  0.78125 0.03125 0  0.8125 0.03125 0  0.84375 0.03125 0  0.875 0.03125 0  0.90625 0.03125 0  0.9375 0.03125 0  0.96875 0.03125 0  1 0.03125 0  1.03125 0.03125 0  1.0625 0.03125 0  1.09375 0.03125 0  1.125 0.03125 0  1.15625 0.03125 0  1.1875 0.03125 0  1.21875 0.03125 0  1.25 0.03125 0  1.28125 0.03125 0  1.3125 0.03125 0  1.34375 0.03125 0  1.375 0.03125 0  1.40625 0.03125 0  1.4375 0.03125 0  1.46875 0.03125 0  1.5 0.03125 0  0 0.0625 0  0.03125 0.0625 0  0.0625 0.0625 0  0.09375 0.0625 0  0.125 0.0625 0  0.15625 0.0625 0  0.1875 0.0625 0  0.21875 0.0625 0  0.25 0.0625 0  0.28125 0.0625 0  0.3125 0.0625 0  0.34375 0.0625 0  0.375 0.0625 0  0.40625 0.0625 0  0.4375 0.0625 0  0.46875 0.0625 0  0.5 0.0625 0  0.53125 0.0625 0  0.5625 0.0625 0  0.59375 0.0625 0  0.625 0.0625 0  0.65625 0.0625 0  0.6875 0.0625 0  0.71875 0.0625 0  0.75 0.0625 0  0.78125 0.0625 0  0.8125 0.0625 0  0.84375 0.0625 0  0.875 0.0625 0  0.90625 0.0625 0  0.9375 0.0625 0  0.96875 0.0625 0  1 0.0625 0  1.03125 0.0625 0  1.0625 0.0625 0  1.09375 0.0625 0  1.125 0.0625 0  1.15625 0.0625 0  1.1875 0.0625 0  1.21875 0.0625 0  1.25 0.0625 0  1.28125 0.0625 0  1.3125 0.0625 0  1.34375 0.0625 0  1.375 0.0625 0  1.40625 0.0625 0  1.4375 0.0625 0  1.46875 0.0625 0  1.5 0.0625 0  0 0.09375 0  0.03125 0.09375 0  0.0625 0.09375 0  0.09375 0.09375 0  0.125 0.09375 0  0.15625 0.09375 0  0.1875 0.09375 0  0.21875 0.09375 0  0.25 0.09375 0  0.28125 0.09375 0  0.3125 0.09375 0  0.34375 0.09375 0  0.375 0.09375 0  0.40625 0.09375 0  0.4375 0.09375 0  0.46875 0.09375 0  0.5 0.09375 0  0.53125 0.09375 0  0.5625 0.09375 0  0.59375 0.09375 0  0.625 0.09375 0  0.65625 0.09375 0  0.6875 0.09375 0  0.71875 0.09375 0  0.75 0.09375 0  0.78125 0.09375 0  0.8125 0.09375 0  0.84375 0.09375 0  0.875 0.09375 0  0.90625 0.09375 0  0.9375 0.09375 0  0.96875 0.09375 0  1 0.09375 0  1.03125 0.09375 0  1.0625 0.09375 0  1.09375 0.09375 0  1.125 0.09375 0  1.15625 0.09375 0  1.1875 0.09375 0  1.21875 0.09375 0  1.25 0.09375 0  1.28125 0.09375 0  1.3125 0.09375 0  1.34375 0.09375 0  1.375 0.09375 0  1.40625 0.09375 0  1.4375 0.09375 0  1.46875 0.09375 0  1.5 0.09375 0  0 0.125 0  0.03125 0.125 0  0.0625 0.125 0  0.09375 0.125 0  0.125 0.125 0  0.15625 0.125 0  0.1875 0.125 0  0.21875 0.125 0  0.25 0.125 0  0.28125 0.125 0  0.3125 0.125 0  0.34375 0.125 0  0.375 0.125 0  0.40625 0.125 0  0.4375 0.125 0  0.46875 0.125 0  0.5 0.125 0  0.53125 0.125 0  0.5625 0.125 0  0.59375 0.125 0  0.625 0.125 0  0.65625 0.125 0  0.6875 0.125 0  0.71875 0.125 0  0.75 0.125 0  0.78125 0.125 0  0.8125 0.125 0  0.84375 0.125 0  0.875 0.125 0  0.90625 0.125 0  0.9375 0.125 0  0.96875 0.125 0  1 0.125 0  1.03125 0.125 0  1.0625 0.125 0  1.09375 0.125 0  1.125 0.125 0  1.15625 0.125 0  1.1875 0.125 0  1.21875 0.125 0  1.25 0.125 0  1.28125 0.125 0  1.3125 0.125 0  1.34375 0.125 0  1.375 0.125 0  1.40625 0.125 0  1.4375 0.125 0  1.46875 0.125 0  1.5 0.125 0  0 0.15625 0  0.03125 0.15625 0  0.0625 0.15625 0  0.09375 0.15625 0  0.125 0.15625 0  0.15625 0.15625 0  0.1875 0.15625 0  0.21875 0.15625 0  0.25 0.15625 0  0.28125 0.15625 0  0.3125 0.15625 0  0.34375 0.15625 0  0.375 0.15625 0  0.40625 0.15625 0  0.4375 0.15625 0  0.46875 0.15625 0  0.5 0.15625 0  0.53125 0.15625 0  0.5625 0.15625 0  0.59375 0.15625 0  0.625 0.15625 0  0.65625 0.15625 0  0.6875 0.15625 0  0.71875 0.15625 0  0.75 0.15625 0  0.78125 0.15625 0  0.8125 0.15625 0  0.84375 0.15625 0  0.875 0.15625 0  0.90625 0.15625 0  0.9375 0.15625 0  0.96875 0.15625 0  1 0.15625 0  1.03125 0.15625 0  1.0625 0.15625 0  1.09375 0.15625 0  1.125 0.15625 0  1.15625 0.15625 0  1.1875 0.15625 0  1.21875 0.15625 0  1.25 0.15625 0  1.28125 0.15625 0  1.3125 0.15625 0  1.34375 0.15625 0  1.375 0.15625 0  1.40625 0.15625 0  1.4375 0.15625 0  1.46875 0.15625 0  1.5 0.15625 0  0 0.1875 0  0.03125 0.1875 0  0.0625 0.1875 0  0.09375 0.1875 0  0.125 0.1875 0  0.15625 0.1875 0  0.1875 0.1875 0  0.21875 0.1875 0  0.25 0.1875 0  0.28125 0.1875 0  0.3125 0.1875 0  0.34375 0.1875 0  0.375 0.1875 0  0.40625 0.1875 0  0.4375 0.1875 0  0.46875 0.1875 0  0.5 0.1875 0  0.53125 0.1875 0  0.5625 0.1875 0  0.59375 0.1875 0  0.625 0.1875 0  0.65625 0.1875 0  0.6875 0.1875 0  0.71875 0.1875 0  0.75 0.1875 0  0.78125 0.1875 0  0.8125 0.1875 0  0.84375 0.1875 0  0.875 0.1875 0  0.90625 0.1875 0  0.9375 0.1875 0  0.96875 0.1875 0  1 0.1875 0  1.03125 0.1875 0  1.0625 0.1875 0  1.09375 0.1875 0  1.125 0.1875 0  1.15625 0.1875 0  1.1875 0.1875 0  1.21875 0.1875 0  1.25 0.1875 0  1.28125 0.1875 0  1.3125 0.1875 0  1.34375 0.1875 0  1.375 0.1875 0  1.40625 0.1875 0  1.4375 0.1875 0  1.46875 0.1875 0  1.5 0.1875 0  0 0.21875 0  0.03125 0.21875 0  0.0625 0.21875 0  0.09375 0.21875 0  0.125 0.21875 0  0.15625 0.21875 0  0.1875 0.21875 0  0.21875 0.21875 0  0.25 0.21875 0  0.28125 0.21875 0  0.3125 0.21875 0  0.34375 0.21875 0  0.375 0.21875 0  0.40625 0.21875 0  0.4375 0.21875 0  0.46875 0.21875 0  0.5 0.21875 0  0.53125 0.21875 0  0.5625 0.21875 0  0.59375 0.21875 0  0.625 0.21875 0  0.65625 0.21875 0  0.6875 0.21875 0  0.71875 0.21875 0  0.75 0.21875 0  0.78125 0.21875 0  0.8125 0.21875 0  0.84375 0.21875 0  0.875 0.21875 0  0.90625 0.21875 0  0.9375 0.21875 0  0.96875 0.21875 0  1 0.21875 0  1.03125 0.21875 0  1.0625 0.21875 0  1.09375 0.21875 0  1.125 0.21875 0  1.15625 0.21875 0  1.1875 0.21875 0  1.21875 0.21875 0  1.25 0.21875 0  1.28125 0.21875 0  1.3125 0.21875 0  1.34375 0.21875 0  1.375 0.21875 0  1.40625 0.21875 0  1.4375 0.21875 0  1.46875 0.21875 0  1.5 0.21875 0  0 0.25 0  0.03125 0.25 0  0.0625 0.25 0  0.09375 0.25 0  0.125 0.25 0  0.15625 0.25 0  0.1875 0.25 0  0.21875 0.25 0  0.25 0.25 0  0.28125 0.25 0  0.3125 0.25 0  0.34375 0.25 0  0.375 0.25 0  0.40625 0.25 0  0.4375 0.25 0  0.46875 0.25 0  0.5 0.25 0  0.53125 0.25 0  0.5625 0.25 0  0.59375 0.25 0  0.625 0.25 0  0.65625 0.25 0  0.6875 0.25 0  0.71875 0.25 0  0.75 0.25 0  0.78125 0.25 0  0.8125 0.25 0  0.84375 0.25 0  0.875 0.25 0  0.90625 0.25 0  0.9375 0.25 0  0.96875 0.25 0  1 0.25 0  1.03125 0.25 0  1.0625 0.25 0  1.09375 0.25 0  1.125 0.25 0  1.15625 0.25 0  1.1875 0.25 0  1.21875 0.25 0  1.25 0.25 0  1.28125 0.25 0  1.3125 0.25 0  1.34375 0.25 0  1.375 0.25 0  1.40625 0.25 0  1.4375 0.25 0  1.46875 0.25 0  1.5 0.25 0  0 0.28125 0  0.03125 0.28125 0  0.0625 0.28125 0  0.09375 0.28125 0  0.125 0.28125 0  0.15625 0.28125 0  0.1875 0.28125 0  0.21875 0.28125 0  0.25 0.28125 0  0.28125 0.28125 0  0.3125 0.28125 0  0.34375 0.28125 0  0.375 0.28125 0  0.40625 0.28125 0  0.4375 0.28125 0  0.46875 0.28125 0  0.5 0.28125 0  0.53125 0.28125 0  0.5625 0.28125 0  0.59375 0.28125 0  0.625 0.28125 0  0.65625 0.28125 0  0.6875 0.28125 0  0.71875 0.28125 0  0.75 0.28125 0  0.78125 0.28125 0  0.8125 0.28125 0  0.84375 0.28125 0  0.875 0.28125 0  0.90625 0.28125 0  0.9375 0.28125 0  0.96875 0.28125 0  1 0.28125 0  1.03125 0.28125 0  1.0625 0.28125 0  1.09375 0.28125 0  1.125 0.28125 0  1.15625 0.28125 0  1.1875 0.28125 0  1.21875 0.28125 0  1.25 0.28125 0  1.28125 0.28125 0  1.3125 0.28125 0  1.34375 0.28125 0  1.375 0.28125 0  1.40625 0.28125 0  1.4375 0.28125 0  1.46875 0.28125 0  1.5 0.28125 0  0 0.3125 0  0.03125 0.3125 0  0.0625 0.3125 0  0.09375 0.3125 0  0.125 0.3125 0  0.15625 0.3125 0  0.1875 0.3125 0  0.21875 0.3125 0  0.25 0.3125 0  0.28125 0.3125 0  0.3125 0.3125 0  0.34375 0.3125 0  0.375 0.3125 0  0.40625 0.3125 0  0.4375 0.3125 0  0.46875 0.3125 0  0.5 0.3125 0  0.53125 0.3125 0  0.5625 0.3125 0  0.59375 0.3125 0  0.625 0.3125 0  0.65625 0.3125 0  0.6875 0.3125 0  0.71875 0.3125 0  0.75 0.3125 0  0.78125 0.3125 0  0.8125 0.3125 0  0.84375 0.3125 0  0.875 0.3125 0  0.90625 0.3125 0  0.9375 0.3125 0  0.96875 0.3125 0  1 0.3125 0  1.03125 0.3125 0  1.0625 0.3125 0  1.09375 0.3125 0  1.125 0.3125 0  1.15625 0.3125 0  1.1875 0.3125 0  1.21875 0.3125 0  1.25 0.3125 0  1.28125 0.3125 0  1.3125 0.3125 0  1.34375 0.3125 0  1.375 0.3125 0  1.40625 0.3125 0  1.4375 0.3125 0  1.46875 0.3125 0  1.5 0.3125 0  0 0.34375 0  0.03125 0.34375 0  0.0625 0.34375 0  0.09375 0.34375 0  0.125 0.34375 0  0.15625 0.34375 0  0.1875 0.34375 0  0.21875 0.34375 0  0.25 0.34375 0  0.28125 0.34375 0  0.3125 0.34375 0  0.34375 0.34375 0  0.375 0.34375 0  0.40625 0.34375 0  0.4375 0.34375 0  0.46875 0.34375 0  0.5 0.34375 0  0.53125 0.34375 0  0.5625 0.34375 0  0.59375 0.34375 0  0.625 0.34375 0  0.65625 0.34375 0  0.6875 0.34375 0  0.71875 0.34375 0  0.75 0.34375 0  0.78125 0.34375 0  0.8125 0.34375 0  0.84375 0.34375 0  0.875 0.34375 0  0.90625 0.34375 0  0.9375 0.34375 0  0.96875 0.34375 0  1 0.34375 0  1.03125 0.34375 0  1.0625 0.34375 0  1.09375 0.34375 0  1.125 0.34375 0  1.15625 0.34375 0  1.1875 0.34375 0  1.21875 0.34375 0  1.25 0.34375 0  1.28125 0.34375 0  1.3125 0.34375 0  1.34375 0.34375 0  1.375 0.34375 0  1
[...]
<PointData  Vectors="f_17"> 
<DataArray  type="Float64"  Name="f_17"  NumberOfComponents="3" format="ascii">0.0000000000000000e+00 0.0000000000000000e+00 0.0000000000000000e+00  0.0000000000000000e+00 0.0000000000000000e+00 0.0000000000000000e+00  0.0000000000000000e+00 0.0000000000000000e+00 0.0000000000000000e+00  0.0000000000000000e+00 0.0000000000000000e+00 0.0000000000000000e+00  0.0000000000000000e+00 0.0000000000000000e+00 0.0000000000000000e+00  0.0000000000000000e+00 0.0000000000000000e+00 0.0000000000000000e+00  0.0000000000000000e+00 0.0000000000000000e+00 0.0000000000000000e+00  0.0000000000000000e+00 0.0000000000000000e+00 0.0000000000000000e+00  0.0000000000000000e+00 0.0000000000000000e+00 0.0000000000000000e+00  0.0000000000000000e+00 0.0000000000000000e+00 0.0000000000000000e+00  0.0000000000000000e+00 0.0000000000000000e+00 0.0000000000000000e+00  0.0000000000000000e+00 0.0000000000000000e+00 0.0000000000000000e+00  0.0000000000000000e+00 0.0000000000000000e+00 0.0000000000000000e+00  0.0000000000000000e+00 0.0000000000000000e+00 0.0000000000000000e+00  0.0000000000000000e+00 0.0000000000000000e+00 0.0000000000000000e+00  0.0000000000000000e+00 0.0000000000000000e+00 0.0000000000000000e+00  0.0000000000000000e+00 0.0000000000000000e+00 0.0000000000000000e+00  0.0000000000000000e+00 0.0000000000000000e+00 0.0000000000000000e+00  0.0000000000000000e+00 0.0000000000000000e+00 0.0000000000000000e+00  0.0000000000000000e+00 0.0000000000000000e+00 0.0000000000000000e+00  0.0000000000000000e+00 0.0000000000000000e+00 0.0000000000000000e+00  0.0000000000000000e+00 0.0000000000000000e+00 0.0000000000000000e+00  0.0000000000000000e+00 0.0000000000000000e+00 0.0000000000000000e+00  0.0000000000000000e+00 0.0000000000000000e+00 0.0000000000000000e+00  0.0000000000000000e+00 0.0000000000000000e+00 0.0000000000000000e+00  0.0000000000000000e+00 0.0000000000000000e+00 0.0000000000000000e+00  0.0000000000000000e+00 0.0000000000000000e+00 0.0000000000000000e+00  0.0000000000000000e+00 0.0000000000000000e+00 0.0000000000000000e+00  0.0000000000000000e+00 0.0000000000000000e+00 0.0000000000000000e+00  0.0000000000000000e+00 0.0000000000000000e+00 0.0000000000000000e+00  0.0000000000000000e+00 0.0000000000000000e+00 0.0000000000000000e+00  0.0000000000000000e+00 0.0000000000000000e+00 0.0000000000000000e+00  0.0000000000000000e+00 0.0000000000000000e+00 0.0000000000000000e+00  0.0000000000000000e+00 0.0000000000000000e+00 0.0000000000000000e+00  0.0000000000000000e+00 0.0000000000000000e+00 0.0000000000000000e+00  0.0000000000000000e+00 0.0000000000000000e+00 0.0000000000000000e+00  0.0000000000000000e+00 0.0000000000000000e+00 0.0000000000000000e+00  0.0000000000000000e+00 0.0000000000000000e+00 0.0000000000000000e+00  0.0000000000000000e+00 0.0000000000000000e+00 0.0000000000000000e+00  0.0000000000000000e+00 0.0000000000000000e+00 0.0000000000000000e+00  0.0000000000000000e+00 0.0000000000000000e+00 0.0000000000000000e+00  0.0000000000000000e+00 0.0000000000000000e+00 0.0000000000000000e+00  0.0000000000000000e+00 0.0000000000000000e+00 0.0000000000000000e+00  0.0000000000000000e+00 0.0000000000000000e+00 0.0000000000000000e+00  0.0000000000000000e+00 0.0000000000000000e+00 0.0000000000000000e+00  0.0000000000000000e+00 0.0000000000000000e+00 0.0000000000000000e+00  0.0000000000000000e+00 0.0000000000000000e+00 0.0000000000000000e+00  0.0000000000000000e+00 0.0000000000000000e+00 0.0000000000000000e+00  0.0000000000000000e+00 0.0000000000000000e+00 0.0000000000000000e+00  0.0000000000000000e+00 0.0000000000000000e+00 0.0000000000000000e+00  1.5775720894896058e-08 4.6291091380936505e-09 0.0000000000000000e+00  -1.1253259300761482e-07 1.0101522078667936e-07 0.0000000000000000e+00  -4.3966548741580039e-08 -2.3233200271017345e-08 0.0000000000000000e+00  -2.3863435274834490e-07 -5.9010988926388183e-08 0.0000000000000000e+00  -2.2409744730704066e-07 -8.5587896296877893e-08 0.0000000000000000e+00  -2.1151815118408299e-07 -8.9334430581670425e-08 0.0000000000000000e+00  -2.0218078014648815e-07 -8.0717853447077653e-08 0.0000000000000000e+00  -1.8217499587355734e-07 -6.9745120203593546e-08 0.0000000000000000e+00  -1.6369780709129544e-07 -5.7992446211925861e-08 0.0000000000000000e+00  -1.4701050200209642e-07 -4.6610726423662565e-08 0.0000000000000000e+00  -1.3336481623296818e-07 -3.5960302472948102e-08 0.0000000000000000e+00  -1.2391592487173296e-07 -2.6050048030296122e-08 0.0000000000000000e+00  -1.1902350953721536e-07 -1.6842968802486469e-08 0.0000000000000000e+00  -1.1895917573071145e-07 -8.2550754572324357e-09 0.0000000000000000e+00  -1.2386516585757228e-07 -1.8476448981157320e-10 0.0000000000000000e+00  -1.3381455801682053e-07 7.4657195851041204e-09 0.0000000000000000e+00  -1.4885182072647477e-07 1.4766433041609070e-08 0.0000000000000000e+00  -1.6897947436930316e-07 2.1729812464831349e-08 0.0000000000000000e+00  -1.9412019132950214e-07 2.8281664072622157e-08 0.0000000000000000e+00  -2.2405083924600346e-07 3.4242768007198010e-08 0.0000000000000000e+00  -2.5832187284119849e-07 3.9331403614595542e-08 0.0000000000000000e+00  -2.9618526394764561e-07 4.3193374892339332e-08 0.0000000000000000e+00  -3.3655320437899283e-07 4.5457704887840765e-08 0.0000000000000000e+00  -3.7801326997606098e-07 4.5806201444678958e-08 0.0000000000000000e+00  -4.1889715496311307e-07 4.4038360307308042e-08 0.0000000000000000e+00  -4.5741389476389402e-07 4.0112218123857332e-08 0.0000000000000000e+00  -4.9177839476665352e-07 3.4151921623617901e-08 0.0000000000000000e+00  -5.2039257972810688e-07 2.6416893873828305e-08 0.0000000000000000e+00  -5.4186609020091163e-07 1.7257231114483856e-08 0.0000000000000000e+00  -5.5524420500499288e-07 7.0373045814914788e-09 0.0000000000000000e+00  -5.5965009469874504e-07 -3.8759571206794349e-09 0.0000000000000000e+00  -5.5499644755132370e-07 -1.5241603150352773e-08 0.0000000000000000e+00  -5.4037709691640640e-07 -2.6744283309591229e-08 0.0000000000000000e+00  -5.1721839085336664e-07 -3.8478857697727145e-08 0.0000000000000000e+00  -4.8256800003339238e-07 -4.9834112075930234e-08 0.0000000000000000e+00  -4.4282127797848274e-07 -6.1915761820801756e-08 0.0000000000000000e+00  -3.8527811179463009e-07 -7.2087422167774619e-08 0.0000000000000000e+00  -3.3666744638298601e-07 -8.5814930461373422e-08 0.0000000000000000e+00  -2.4301944999574311e-07 -9.0685361722237062e-08 0.0000000000000000e+00  -2.1546789291365930e-07 -1.1214930381640897e-07 0.0000000000000000e+00  -3.0272160975194206e-08 -9.3696192163479386e-08 0.0000000000000000e+00  -1.4168582143219459e-07 -1.4957512341141394e-07 0.0000000000000000e+00  3.5095456022959731e-07 -3.3727094638001394e-08 0.0000000000000000e+00  -3.7786924174393822e-07 -2.4124881068329999e-07 0.0000000000000000e+00  1.1485452723807153e-06 2.3277978437907351e-07 0.0000000000000000e+00  -2.4277919506512846e-06 -7.5135837987734182e-07 0.0000000000000000e+00  2.6877478532247767e-06 1.3697721763300314e-06 0.0000000000000000e+00  0.0000000000000000e+00 0.0000000000000000e+00 0.0000000000000000e+00  0.0000000000000000e+00 0.0000000000000000e+00 0.0000000000000000e+00  -1.2557067396128659e-06 6.6118510261920096e-07 0.0000000000000000e+00  7.9345329524780075e-07 -4.6056831118309528e-08 0.0000000000000000e+00  -8.6747120064957197e-08 8.7409766488365380e-08 0.0000000000000000e+00  -2.5443084107178611e-07 -3.1057372836118264e-08 0.0000000000000000e+00  -2.6541583308027488e-07 -8.2200937740987723e-08 0.0000000000000000e+00  -3.1937955710180920e-07 -1.0261843182026484e-07 0.0000000000000000e+00  -3.1460967500780728e-07 -1.0568284926022243e-07 0.0000000000000000e+00  -3.0048414166046916e-07 -9.9591476192469008e-08 0.0000000000000000e+00  -2.8287511747814917e-07 -8.8476749231105364e-08 0.0000000000000000e+00  -2.6311060008808013e-07 -7.4952973439677641e-08 0.0000000000000000e+00  -2.4573806482542206e-07 -6.0285172619091526e-08 0.0000000000000000e+00  -2.3187369866828554e-07 -4.5203796802132452e-08 0.0000000000000000e+00  -2.2238029978524614e-07 -3.0129052810846636e-08 0.0000000000000000e+00  -2.1779262139484933e-07 -1.5270930421269609e-08 0.0000000000000000e+00  -2.1833843262839253e-07 -7.1134464432141841e-10 0.0000000000000000e+00  -2.2414311695914463e-07 1.3535069039045642e-08 0.0000000000000000e+00  -2.3525288313005714e-07 2.7458409513232316e-08 0.0000000000000000e+00  -2.5165061608653915e-07 4.0982106869076282e-08 0.0000000000000000e+00  -2.7322985421912437e-07 5.3892552853804633e-08 0.0000000000000000e+00  -2.9972715761031430e-07 6.5787830534899108e-08 0.0000000000000000e+00  -3.3063153096029193e-07 7.6067967003183073e-08 0.0000000000000000e+00  -3.6509773501226922e-07 8.3983890925878021e-08 0.0000000000000000e+00  -4.0189555848000484e-07 8.8744998790555501e-08 0.0000000000000000e+00  -4.3943122099914798e-07 8.9662516986747503e-08 0.0000000000000000e+00  -4.7584024058144055e-07 8.6288610689507756e-08 0.0000000000000000e+00  -5.0916108394166198e-07 7.8508083458145325e-08 0.0000000000000000e+00  -5.3750180543098426e-07 6.6558178386073028e-08 0.0000000000000000e+00  -5.5925482621196398e-07 5.0969736388876798e-08 0.0000000000000000e+00  -5.7311585902259534e-07 3.2467551972958638e-08 0.0000000000000000e+00  -5.7831641307388951e-07 1.1829077864492881e-08 0.0000000000000000e+00  -5.7420710734294817e-07 -1.0181326380793424e-08 0.0000000000000000e+00  -5.6100101638023276e-07 -3.2977132033984359e-08 0.0000000000000000e+00  -5.3803506322426638e-07 -5.5961176783063005e-08 0.0000000000000000e+00  -5.0710754634376190e-07 -7.8994182080217485e-08 0.0000000000000000e+00  -4.6543241184924298e-07 -1.0128431814672488e-07 0.0000000000000000e+00  -4.1996560667317797e-07 -1.2367874491867465e-07 0.0000000000000000e+00  -3.5804454122635182e-07 -1.4343752964444170e-07 0.0000000000000000e+00  -3.0743050980105360e-07 -1.6529443609510752e-07 0.0000000000000000e+00  -2.1417539365342874e-07 -1.7726626647331680e-07 0.0000000000000000e+00  -1.9095315725960741e-07 -2.0182174190953443e-07 0.0000000000000000e+00  -1.5449971801343649e-08 -1.8667197918735910e-07 0.0000000000000000e+00  -1.4172944582504761e-07 -2.3351934819798266e-07 0.0000000000000000e+00  3.1967157336011303e-07 -1.2155416336291104e-07 0.0000000000000000e+00  -4.3590321150637539e-07 -2.9462293072272103e-07 0.0000000000000000e+00  9.7582081838475621e-07 1.4402541525833816e-07 0.0000000000000000e+00  -2.4517083254725095e-06 -6.1980942077585301e-07 0.0000000000000000e+00  2.6455459788989548e-06 1.4061707080712378e-06 0.0000000000000000e+00  0.0000000000000000e+00 0.0000000000000000e+00 0.0000000000000000e+00  0.0000000000000000e+00 0.0000000000000000e+00 0.0000000000000000e+00  -2.3078696696919628e-06 1.1319138834007925e-06 0.0000000000000000e+00  1.7438950529844903e-06 -1.5123299043003789e-07 0.0000000000000000e+00  -3.4969730858267565e-07 2.4107986698947215e-07 0.0000000000000000e+00  2.8265282950599506e-08 -1.4301309549547597e-08 0.0000000000000000e+00  -1.1601291404417798e-07 -4.3068154665704139e-08 0.0000000000000000e+00  -1.7061852522013195e-07 -9.2098293386739189e-08 0.0000000000000000e+00  -1.8425464220674026e-07 -1.0735241897717853e-07 0.0000000000000000e+00  -2.0816137927315212e-07 -1.0854121493405729e-07 0.0000000000000000e+00  -2.1708072401125907e-07 -1.0041972917100496e-07 0.0000000000000000e+00  -2.2159087225669458e-07 -8.6815575458688413e-08 0.0000000000000000e+00  -2.2399249623498259e-07 -7.0201032144294105e-08 0.0000000000000000e+00  -2.2543400276676629e-07 -5.2037268510445199e-08 0.0000000000000000e+00  -2.2765483433758754e-07 -3.3226614272892184e-08 0.0000000000000000e+00  -2.3149725587331230e-07 -1.4282685900282109e-08 0.0000000000000000e+00  -2.3759690759218735e-07 4.5333966117405415e-09 0.0000000000000000e+00  -2.4640460674192480e-07 2.3114419409714084e-08 0.0000000000000000e+00  -2.5822947606105007e-07 4.1407592742496705e-08 0.0000000000000000e+00  -2.7329570613852433e-07 5.9300311543840592e-08 0.0000000000000000e+00  -2.9172509512955260e-07 7.6502515040497275e-08 0.0000000000000000e+00  -3.1347700277733442e-07 9.2451244698571256e-08 0.0000000000000000e+00  -3.3824922360063200e-07 1.0627743487839332e-07 0.0000000000000000e+00  -3.6537405879153958e-07 1.1686929621286138e-07 0.0000000000000000e+00  -3.9375598485727579e-07 1.2303822650994154e-07 0.0000000000000000e+00  -4.2190212878082825e-07 1.2375099871070760e-07 0.0000000000000000e+00  -4.4805061015965246e-07 1.1835772983856467e-07 0.0000000000000000e+00  -4.7039888268778165e-07 1.0673888822326562e-07 0.0000000000000000e+00  -4.8731998368726680e-07 8.9327407603014995e-08 0.0000000000000000e+00  -4.9760651884901981e-07 6.7001753298146476e-08 0.0000000000000000e+00  -5.0047496390847707e-07 4.0910241942130045e-08 0.0000000000000000e+00  -4.9577090367728637e-07 1.2251491178024039e-08 0.0000000000000000e+00  -4.8347926088225909e-07 -1.7845916212120148e-08 0.0000000000000000e+00  -4.6446392337629545e-07 -4.8517934650407156e-08 0.0000000000000000e+00  -4.3862151638818857e-07 -7.8966764155154306e-08 0.0000000000000000e+00  -4.0836155417112121e-07 -1.0891770306809222e-07 0.0000000000000000e+00  -3.7129710017038381e-07 -1.3745615460080162e-07 0.0000000000000000e+00  -3.3508499526115923e-07 -1.6529860576673232e-07 0.0000000000000000e+00  -2.8723170246301388e-07 -1.8953917495991802e-07 0.0000000000000000e+00  -2.5656700426188026e-07 -2.1455336901063941e-07 0.0000000000000000e+00  -1.8893299473511686e-07 -2.2833446523998622e-07 0.0000000000000000e+00  -1.9829344720436125e-07 -2.5203461050844578e-07 0.0000000000000000e+00  -6.2674975071897373e-08 -2.3584058895376687e-07 0.0000000000000000e+00  -2.3251460537530345e-07 -2.7526579308518853e-07 0.0000000000000000e+00  1.6968951465510324e-07 -1.6884230577804118e-07 0.0000000000000000e+00  -6.1908238641714518e-07 -3.2308412633446328e-07 0.0000000000000000e+00  7.0712716897038959e-07 6.3434608167879845e-08 0.0000000000000000e+00  -2.6442207824583814e-06 -5.8777976273182744e-07 0.0000000000000000e+00  2.2718071375527724e-06 1.1806953104699429e-06 0.0000000000000000e+00  0.0000000000000000e+00 0.0000000000000000e+00 0.0000000000000000e+00  0.0000000000000000e+00 0.0000000000000000e+00 0.0000000000000000e+00  -2.5644265034093266e-06 1.1773418201420165e-06 0.0000000000000000e+00  2.3529807442428035e-06 -1.8431224706132308e-07 0.0000000000000000e+00  -6.5410381758886746e-07 3.1766684676703953e-07 0.0000000000000000e+00  2.9176214514619975e-07 -6.5167365731332334e-09 0.0000000000000000e+00  -1.3727796572838806e-07 2.3527079044140629e-08 0.0000000000000000e+00  -7.9385696908552979e-08 -5.6501171207171172e-08 0.0000000000000000e+00  -1.2528920623800438e-07 -7.4776758775049868e-08 0.0000000000000000e+00  -1.5815851028273828e-07 -8.8061874038437446e-08 0.0000000000000000e+00  -1.7609703636100241e-07 -8.6992253769786779e-08 0.0000000000000000e+00  -1.9347664848235302e-07 -7.8324601744601018e-08 0.0000000000000000e+00  -2.0567288243836990e-07 -6.4418906320759207e-08 0.0000000000000000e+00  -2.1566373493957056e-07 -4.7275065271510504e-08 0.0000000000000000e+00  -2.2465416504303614e-07 -2.8280211471728759e-08 0.0000000000000000e+00  -2.3339830411597888e-07 -8.3008161606908159e-09 0.0000000000000000e+00  -2.4266043844197049e-07 1.2132495583046425e-08 0.0000000000000000e+00  -2.5293025337031787e-07 3.2744925776099191e-08 0.0000000000000000e+00  -2.6460908396279355e-07 5.3387877845268113e-08 0.0000000000000000e+00  -2.7803893992819992e-07 7.3887805616834261e-08 0.0000000000000000e+00  -2.9349468221399796e-07 9.3872061341008309e-08 0.0000000000000000e+00  -3.1112062709779794e-07 1.1260944247556608e-07 0.0000000000000000e+00  -3.3079914963471668e-07 1.2893318150609139e-07 0.0000000000000000e+00  -3.5200158308087391e-07 1.4131183888603604e-07 0.0000000000000000e+00  -3.7368940630670478e-07 1.4809027651620522e-07 0.0000000000000000e+00  -3.9434756970902698e-07 1.4784609365141657e-07 0.0000000000000000e+00  -4.1216699523503716e-07 1.3974103713725963e-07 0.0000000000000000e+00  -4.2536548909169105e-07 1.2373571987838998e-07 0.0000000000000000e+00  -4.3248735267045740e-07 1.0059560487631424e-07 0.0000000000000000e+00  -4.3269454516092410e-07 7.1696796938304372e-08 0.0000000000000000e+00  -4.2573771338173871e-07 3.8732859276301881e-08 0.0000000000000000e+00  -4.1211558212576684e-07 3.3925356524029996e-09 0.0000000000000000e+00  -3.9245275028353826e-07 -3.2820846111708926e-08 0.0000000000000000e+00  -3.6825693232952248e-07 -6.8794707464266194e-08 0.0000000000000000e+00  -3.3985432486654698e-07 -1.0358669564795283e-07 0.0000000000000000e+00  -3.1019402623188093e-07 -1.3682832944450104e-07 0.0000000000000000e+00  -2.7689446953570339e-07 -1.6754250516554529e-07 0.0000000000000000e+00  -2.4833341282886260e-07 -1.9630218364747538e-07 0.0000000000000000e+00  -2.1111010106773144e-07 -2.2015635647519620e-07 0.0000000000000000e+00  -1.9589420204263245e-07 -2.4303551381570947e-07 0.0000000000000000e+00  -1.4489958477238955e-07 -2.5340591507890546e-07 0.0000000000000000e+00  -1.7781593458639565e-07 -2.7092705247001673e-07 0.0000000000000000e+00  -6.0573010206831833e-08 -2.4976211588534110e-07 0.0000000000000000e+00  -2.6125198317263001e-07 -2.7882390126579335e-07 0.0000000000000000e+00  1.3328183235652013e-07 -1.7701269952669961e-07 0.0000000000000000e+00  -6.8816358388911743e-07 -3.1426971638910851e-07 0.0000000000000000e+00  6.6157558617209338e-07 2.5943002583916889e-08 0.0000000000000000e+00  -2.6920678223217891e-06 -5.4688498898215045e-07 0.0000000000000000e+00  2.2580212733993983e-06 1.0147504759878192e-06 0.0000000000000000e+00  0.0000000000000000e+00 0.0000000000000000e+00 0.0000000000000000e+00  0.0000000000000000e+00 0.0000000000000000e+00 0.0000000000000000e+00  -2.5153285507973544e-06 1.0710739816622558e-06 0.0000000000000000e+00  2.5965408233897808e-06 -1.6689066266114707e-07 0.0000000000000000e+00  -7.9645997342459346e-07 3.1826914318873638e-07 0.0000000000000000e+00  5.0014482740780239e-07 3.9093870471947118e-09 0.0000000000000000e+00  -1.8751895444554324e-07 7.5071231124108116e-08 0.0000000000000000e+00  3.0226072213824566e-08 -2.3476732663260841e-08 0.0000000000000000e+00  -8.1513623987066797e-08 -3.5014587553285994e-08 0.0000000000000000e+00  -9.4533957365358537e-08 -5.9451127779551690e-08 0.0000000000000000e+00  -1.2343145152835039e-07 -6.2954988033467707e-08 0.0000000000000000e+00  -1.4867532802360580e-07 -5.9794942730297184e-08 0.0000000000000000e+00  -1.6809826495101202e-07 -4.9386285722264866e-08 0.0000000000000000e+00  -1.8566648549493438e-07 -3.4596659457807923e-08 0.0000000000000000e+00  -2.0084503374129423e-07 -1.6908808563806207e-08 0.0000000000000000e+00  -2.1464768950318788e-07 2.5363656091890409e-09 0.0000000000000000e+00  -2.2767804731267008e-07 2.2993041538303096e-08 0.0000000000000000e+00  -2.4037742356119311e-07 4.4056612114849175e-08 0.0000000000000000e+00  -2.5318409186346429e-07 6.5520198810752274e-08 0.0000000000000000e+00  -2.6651010812584563e-07 8.7206949607731431e-08 0.0000000000000000e+00  -2.8077448788279311e-07 1.0872733408016727e-07 0.0000000000000000e+00  -2.9632039977123939e-07 1.2922791921731297e-07 0.0000000000000000e+00  -3.1323256083575616e-07 1.4723441073477026e-07 0.0000000000000000e+00  -3.3110724976841720e-07 1.6071545283254248e-07 0.0000000000000000e+00  -3.4888265509636792e-07 1.6742870624929178e-07 0.0000000000000000e+00  -3.6486920157097779e-07 1.6546903660605904e-07 0.0000000000000000e+00  -3.7702300485437743e-07 1.5381011757512852e-07 0.0000000000000000e+00  -3.8342357972995096e-07 1.3261003896594129e-07 0.0000000000000000e+00  -3.8271284426235126e-07 1.0316685430638548e-07 0.0000000000000000e+00  -3.7444595666110478e-07 6.7566629680955412e-08 0.0000000000000000e+00  -3.5899969777901529e-07 2.8204743894030412e-08 0.0000000000000000e+00  -3.3762557870996627e-07 -1.2677451467282859e-08 0.0000000000000000e+00  -3.1165636309705919e-07 -5.3232867069624326e-08 0.0000000000000000e+00  -2.8323345354084923e-07 -9.2201109710945634e-08 0.0000000000000000e+00  -2.5306236870781787e-07 -1.2862884648990824e-07 0.0000000000000000e+00  -2.2446405092786389e-07 -1.6220027089753