<?xml version="1.0"?>
<VTKFile type="UnstructuredGrid"  version="0.1"  >
<UnstructuredGrid>
<Piece  NumberOfPoints="1617" NumberOfCells="3072">
<Points>
<DataArray  type="Float64"  NumberOfComponents="3"  format="ascii">0 0 0  0.03125 0 0  0.0625 0 0  0.09375 0 0  0.125 0 0  0.15625 0 0  0.1875 0 0  0.21875 0 0  0.25 0 0  0.28125 0 0  0.3125 0 0  0.34375 0 0  0.375 0 0  0.40625 0 0  0.4375 0 0  0.46875 0 0  0.5 0 0  0.53125 0 0  0.5625 0 0  0.59375 0 0  0.625 0 0  0.65625 0 0  0.6875 0 0  0.71875 0 0  0.75 0 0  0.78125 0 0  0.8125 0 0  0.84375 0 0  0.875 0 0  0.90625 0 0  0.9375 0 0  0.96875 0 0  1 0 0  1.03125 0 0  1.0625 0 0  1.09375 0 0  1.125 0 0  1.15625 0 0  1.1875 0 0  1.21875 0 0  1.25 0 0  1.28125 0 0  1.3125 0 0  1.34375 0 0  1.375 0 0  1.40625 0 0  1.4375 0 0  1.46875 0 0  1.5 0 0  0 0.03125 0  0.03125 0.03125 0  0.0625 0.03125 0  0.09375 0.03125 0  0.125 0.03125 0  0.15625 0.03125 0  0.1875 0.03125 0  0.21875 0.03125 0  0.25 0.03125 0  0.28125 0.03125 0  0.3125 0.03125 0  0.34375 0.03125 0  0.375 0.03125 0  0.40625 0.03125 0  0.4375 0.03125 0  0.46875 0.03125 0  0.5 0.03125 0  0.53125 0.03125 0  0.5625 0.03125 0  0.59375 0.03125 0  0.625 0.03125 0  0.65625 0.03125 0  0.6875 0.03125 0  0.71875 0.03125 0  0.75 0.03125 0  0.78125 0.03125 0  0.8125 0.03125 0  0.84375 0.03125 0  0.875 0.03125 0  0.90625 0.03125 0  0.9375 0.03125 0  0.96875 0.03125 0  1 0.03125 0  1.03125 0.03125 0  1.0625 0.03125 0  1.09375 0.03125 0  1.125 0.03125 0  1.15625 0.03125 0  1.1875 0.03125 0  1.21875 0.03125 0  1.25 0.03125 0  1.28125 0.03125 0  1.3125 0.03125 0  1.34375 0.03125 0  1.375 0.03125 0  1.40625 0.03125 0  1.4375 0.03125 0  1.46875 0.03125 0  1.5 0.03125 0  0 0.0625 0  0.03125 0.0625 0  0.0625 0.0625 0  0.09375 0.0625 0  0.125 0.0625 0  0.15625 0.0625 0  0.1875 0.0625 0  0.21875 0.0625 0  0.25 0.0625 0  0.28125 0.0625 0  0.3125 0.0625 0  0.34375 0.0625 0  0.375 0.0625 0  0.40625 0.0625 0  0.4375 0.0625 0  0.46875 0.0625 0  0.5 0.0625 0  0.53125 0.0625 0  0.5625 0.0625 0  0.59375 0.0625 0  0.625 0.0625 0  0.65625 0.0625 0  0.6875 0.0625 0  0.71875 0.0625 0  0.75 0.0625 0  0.78125 0.0625 0  0.8125 0.0625 0  0.84375 0.0625 0  0.875 0.0625 0  0.90625 0.0625 0  0.9375 0.0625 0  0.96875 0.0625 0  1 0.0625 0  1.03125 0.0625 0  1.0625 0.0625 0  1.09375 0.0625 0  1.125 0.0625 0  1.15625 0.0625 0  1.1875 0.0625 0  1.21875 0.0625 0  1.25 0.0625 0  1.28125 0.0625 0  1.3125 0.0625 0  1.34375 0.0625 0  1.375 0.0625 0  1.40625 0.0625 0  1.4375 0.0625 0  1.46875 0.0625 0  1.5 0.0625 0  0 0.09375 0  0.03125 0.09375 0  0.0625 0.09375 0  0.09375 0.09375 0  0.125 0.09375 0  0.15625 0.09375 0  0.1875 0.09375 0  0.21875 0.09375 0  0.25 0.09375 0  0.28125 0.09375 0  0.3125 0.09375 0  0.34375 0.09375 0  0.375 0.09375 0  0.40625 0.09375 0  0.4375 0.09375 0  0.46875 0.09375 0  0.5 0.09375 0  0.53125 0.09375 0  0.5625 0.09375 0  0.59375 0.09375 0  0.625 0.09375 0  0.65625 0.09375 0  0.6875 0.09375 0  0.71875 0.09375 0  0.75 0.09375 0  0.78125 0.09375 0  0.8125 0.09375 0  0.84375 0.09375 0  0.875 0.09375 0  0.90625 0.09375 0  0.9375 0.09375 0  0.96875 0.09375 0  1 0.09375 0  1.03125 0.09375 0  1.0625 0.09375 0  1.09375 0.09375 0  1.125 0.09375 0  1.15625 0.09375 0  1.1875 0.09375 0  1.21875 0.09375 0  1.25 0.09375 0  1.28125 0.09375 0  1.3125 0.09375 0  1.34375 0.09375 0  1.375 0.09375 0  1.40625 0.09375 0  1.4375 0.09375 0  1.46875 0.09375 0  1.5 0.09375 0  0 0.125 0  0.03125 0.125 0  0.0625 0.125 0  0.09375 0.125 0  0.125 0.125 0  0.15625 0.125 0  0.1875 0.125 0  0.21875 0.125 0  0.25 0.125 0  0.28125 0.125 0  0.3125 0.125 0  0.34375 0.125 0  0.375 0.125 0  0.40625 0.125 0  0.4375 0.125 0  0.46875 0.125 0  0.5 0.125 0  0.53125 0.125 0  0.5625 0.125 0  0.59375 0.125 0  0.625 0.125 0  0.65625 0.125 0  0.6875 0.125 0  0.71875 0.125 0  0.75 0.125 0  0.78125 0.125 0  0.8125 0.125 0  0.84375 0.125 0  0.875 0.125 0  0.90625 0.125 0  0.9375 0.125 0  0.96875 0.125 0  1 0.125 0  1.03125 0.125 0  1.0625 0.125 0  1.09375 0.125 0  1.125 0.125 0  1.15625 0.125 0  1.1875 0.125 0  1.21875 0.125 0  1.25 0.125 0  1.28125 0.125 0  1.3125 0.125 0  1.34375 0.125 0  1.375 0.125 0  1.40625 0.125 0  1.4375 0.125 0  1.46875 0.125 0  1.5 0.125 0  0 0.15625 0  0.03125 0.15625 0  0.0625 0.15625 0  0.09375 0.15625 0  0.125 0.15625 0  0.15625 0.15625 0  0.1875 0.15625 0  0.21875 0.15625 0  0.25 0.15625 0  0.28125 0.15625 0  0.3125 0.15625 0  0.34375 0.15625 0  0.375 0.15625 0  0.40625 0.15625 0  0.4375 0.15625 0  0.46875 0.15625 0  0.5 0.15625 0  0.53125 0.15625 0  0.5625 0.15625 0  0.59375 0.15625 0  0.625 0.15625 0  0.65625 0.15625 0  0.6875 0.15625 0  0.71875 0.15625 0  0.75 0.15625 0  0.78125 0.15625 0  0.8125 0.15625 0  0.84375 0.15625 0  0.875 0.15625 0  0.90625 0.15625 0  0.9375 0.15625 0  0.96875 0.15625 0  1 0.15625 0  1.03125 0.15625 0  1.0625 0.15625 0  1.09375 0.15625 0  1.125 0.15625 0  1.15625 0.15625 0  1.1875 0.15625 0  1.21875 0.15625 0  1.25 0.15625 0  1.28125 0.15625 0  1.3125 0.15625 0  1.34375 0.15625 0  1.375 0.15625 0  1.40625 0.15625 0  1.4375 0.15625 0  1.46875 0.15625 0  1.5 0.15625 0  0 0.1875 0  0.03125 0.1875 0  0.0625 0.1875 0  0.09375 0.1875 0  0.125 0.1875 0  0.15625 0.1875 0  0.1875 0.1875 0  0.21875 0.1875 0  0.25 0.1875 0  0.28125 0.1875 0  0.3125 0.1875 0  0.34375 0.1875 0  0.375 0.1875 0  0.40625 0.1875 0  0.4375 0.1875 0  0.46875 0.1875 0  0.5 0.1875 0  0.53125 0.1875 0  0.5625 0.1875 0  0.59375 0.1875 0  0.625 0.1875 0  0.65625 0.1875 0  0.6875 0.1875 0  0.71875 0.1875 0  0.75 0.1875 0  0.78125 0.1875 0  0.8125 0.1875 0  0.84375 0.1875 0  0.875 0.1875 0  0.90625 0.1875 0  0.9375 0.1875 0  0.96875 0.1875 0  1 0.1875 0  1.03125 0.1875 0  1.0625 0.1875 0  1.09375 0.1875 0  1.125 0.1875 0  1.15625 0.1875 0  1.1875 0.1875 0  1.21875 0.1875 0  1.25 0.1875 0  1.28125 0.1875 0  1.3125 0.1875 0  1.34375 0.1875 0  1.375 0.1875 0  1.40625 0.1875 0  1.4375 0.1875 0  1.46875 0.1875 0  1.5 0.1875 0  0 0.21875 0  0.03125 0.21875 0  0.0625 0.21875 0  0.09375 0.21875 0  0.125 0.21875 0  0.15625 0.21875 0  0.1875 0.21875 0  0.21875 0.21875 0  0.25 0.21875 0  0.28125 0.21875 0  0.3125 0.21875 0  0.34375 0.21875 0  0.375 0.21875 0  0.40625 0.21875 0  0.4375 0.21875 0  0.46875 0.21875 0  0.5 0.21875 0  0.53125 0.21875 0  0.5625 0.21875 0  0.59375 0.21875 0  0.625 0.21875 0  0.65625 0.21875 0  0.6875 0.21875 0  0.71875 0.21875 0  0.75 0.21875 0  0.78125 0.21875 0  0.8125 0.21875 0  0.84375 0.21875 0  0.875 0.21875 0  0.90625 0.21875 0  0.9375 0.21875 0  0.96875 0.21875 0  1 0.21875 0  1.03125 0.21875 0  1.0625 0.21875 0  1.09375 0.21875 0  1.125 0.21875 0  1.15625 0.21875 0  1.1875 0.21875 0  1.21875 0.21875 0  1.25 0.21875 0  1.28125 0.21875 0  1.3125 0.21875 0  1.34375 0.21875 0  1.375 0.21875 0  1.40625 0.21875 0  1.4375 0.21875 0  1.46875 0.21875 0  1.5 0.21875 0  0 0.25 0  0.03125 0.25 0  0.0625 0.25 0  0.09375 0.25 0  0.125 0.25 0  0.15625 0.25 0  0.1875 0.25 0  0.21875 0.25 0  0.25 0.25 0  0.28125 0.25 0  0.3125 0.25 0  0.34375 0.25 0  0.375 0.25 0  0.40625 0.25 0  0.4375 0.25 0  0.46875 0.25 0  0.5 0.25 0  0.53125 0.25 0  0.5625 0.25 0  0.59375 0.25 0  0.625 0.25 0  0.65625 0.25 0  0.6875 0.25 0  0.71875 0.25 0  0.75 0.25 0  0.78125 0.25 0  0.8125 0.25 0  0.84375 0.25 0  0.875 0.25 0  0.90625 0.25 0  0.9375 0.25 0  0.96875 0.25 0  1 0.25 0  1.03125 0.25 0  1.0625 0.25 0  1.09375 0.25 0  1.125 0.25 0  1.15625 0.25 0  1.1875 0.25 0  1.21875 0.25 0  1.25 0.25 0  1.28125 0.25 0  1.3125 0.25 0  1.34375 0.25 0  1.375 0.25 0  1.40625 0.25 0  1.4375 0.25 0  1.46875 0.25 0  1.5 0.25 0  0 0.28125 0  0.03125 0.28125 0  0.0625 0.28125 0  0.09375 0.28125 0  0.125 0.28125 0  0.15625 0.28125 0  0.1875 0.28125 0  0.21875 0.28125 0  0.25 0.28125 0  0.28125 0.28125 0  0.3125 0.28125 0  0.34375 0.28125 0  0.375 0.28125 0  0.40625 0.28125 0  0.4375 0.28125 0  0.46875 0.28125 0  0.5 0.28125 0  0.53125 0.28125 0  0.5625 0.28125 0  0.59375 0.28125 0  0.625 0.28125 0  0.65625 0.28125 0  0.6875 0.28125 0  0.71875 0.28125 0  0.75 0.28125 0  0.78125 0.28125 0  0.8125 0.28125 0  0.84375 0.28125 0  0.875 0.28125 0  0.90625 0.28125 0  0.9375 0.28125 0  0.96875 0.28125 0  1 0.28125 0  1.03125 0.28125 0  1.0625 0.28125 0  1.09375 0.28125 0  1.125 0.28125 0  1.15625 0.28125 0  1.1875 0.28125 0  1.21875 0.28125 0  1.25 0.28125 0  1.28125 0.28125 0  1.3125 0.28125 0  1.34375 0.28125 0  1.375 0.28125 0  1.40625 0.28125 0  1.4375 0.28125 0  1.46875 0.28125 0  1.5 0.28125 0  0 0.3125 0  0.03125 0.3125 0  0.0625 0.3125 0  0.09375 0.3125 0  0.125 0.3125 0  0.15625 0.3125 0  0.1875 0.3125 0  0.21875 0.3125 0  0.25 0.3125 0  0.28125 0.3125 0  0.3125 0.3125 0  0.34375 0.3125 0  0.375 0.3125 0  0.40625 0.3125 0  0.4375 0.3125 0  0.46875 0.3125 0  0.5 0.3125 0  0.53125 0.3125 0  0.5625 0.3125 0  0.59375 0.3125 0  0.625 0.3125 0  0.65625 0.3125 0  0.6875 0.3125 0  0.71875 0.3125 0  0.75 0.3125 0  0.78125 0.3125 0  0.8125 0.3125 0  0.84375 0.3125 0  0.875 0.3125 0  0.90625 0.3125 0  0.9375 0.3125 0  0.96875 0.3125 0  1 0.3125 0  1.03125 0.3125 0  1.0625 0.3125 0  1.09375 0.3125 0  1.125 0.3125 0  1.15625 0.3125 0  1.1875 0.3125 0  1.21875 0.3125 0  1.25 0.3125 0  1.28125 0.3125 0  1.3125 0.3125 0  1.34375 0.3125 0  1.375 0.3125 0  1.40625 0.3125 0  1.4375 0.3125 0  1.46875 0.3125 0  1.5 0.3125 0  0 0.34375 0  0.03125 0.34375 0  0.0625 0.34375 0  0.09375 0.34375 0  0.125 0.34375 0  0.15625 0.34375 0  0.1875 0.34375 0  0.21875 0.34375 0  0.25 0.34375 0  0.28125 0.34375 0  0.3125 0.34375 0  0.34375 0.34375 0  0.375 0.34375 0  0.40625 0.34375 0  0.4375 0.34375 0  0.46875 0.34375 0  0.5 0.34375 0  0.53125 0.34375 0  0.5625 0.34375 0  0.59375 0.34375 0  0.625 0.34375 0  0.65625 0.34375 0  0.6875 0.34375 0  0.71875 0.34375 0  0.75 0.34375 0  0.78125 0.34375 0  0.8125 0.34375 0  0.84375 0.34375 0  0.875 0.34375 0  0.90625 0.34375 0  0.9375 0.34375 0  0.96875 0.34375 0  1 0.34375 0  1.03125 0.34375 0  1.0625 0.34375 0  1.09375 0.34375 0  1.125 0.34375 0  1.15625 0.34375 0  1.1875 0.34375 0  1.21875 0.34375 0  1.25 0.34375 0  1.28125 0.34375 0  1.3125 0.34375 0  1.34375 0.34375 0  1.375 0.34375 0  1
[...]
<PointData  Vectors="f_17"> 
<DataArray  type="Float64"  Name="f_17"  NumberOfComponents="3" format="ascii">0.0000000000000000e+00 0.0000000000000000e+00 0.0000000000000000e+00  0.0000000000000000e+00 0.0000000000000000e+00 0.0000000000000000e+00  0.0000000000000000e+00 0.0000000000000000e+00 0.0000000000000000e+00  0.0000000000000000e+00 0.0000000000000000e+00 0.0000000000000000e+00  0.0000000000000000e+00 0.0000000000000000e+00 0.0000000000000000e+00  0.0000000000000000e+00 0.0000000000000000e+00 0.0000000000000000e+00  0.0000000000000000e+00 0.0000000000000000e+00 0.0000000000000000e+00  0.0000000000000000e+00 0.0000000000000000e+00 0.0000000000000000e+00  0.0000000000000000e+00 0.0000000000000000e+00 0.0000000000000000e+00  0.0000000000000000e+00 0.0000000000000000e+00 0.0000000000000000e+00  0.0000000000000000e+00 0.0000000000000000e+00 0.0000000000000000e+00  0.0000000000000000e+00 0.0000000000000000e+00 0.0000000000000000e+00  0.0000000000000000e+00 0.0000000000000000e+00 0.0000000000000000e+00  0.0000000000000000e+00 0.0000000000000000e+00 0.0000000000000000e+00  0.0000000000000000e+00 0.0000000000000000e+00 0.0000000000000000e+00  0.0000000000000000e+00 0.0000000000000000e+00 0.0000000000000000e+00  0.0000000000000000e+00 0.0000000000000000e+00 0.0000000000000000e+00  0.0000000000000000e+00 0.0000000000000000e+00 0.0000000000000000e+00  0.0000000000000000e+00 0.0000000000000000e+00 0.0000000000000000e+00  0.0000000000000000e+00 0.0000000000000000e+00 0.0000000000000000e+00  0.0000000000000000e+00 0.0000000000000000e+00 0.0000000000000000e+00  0.0000000000000000e+00 0.0000000000000000e+00 0.0000000000000000e+00  0.0000000000000000e+00 0.0000000000000000e+00 0.0000000000000000e+00  0.0000000000000000e+00 0.0000000000000000e+00 0.0000000000000000e+00  0.0000000000000000e+00 0.0000000000000000e+00 0.0000000000000000e+00  0.0000000000000000e+00 0.0000000000000000e+00 0.0000000000000000e+00  0.0000000000000000e+00 0.0000000000000000e+00 0.0000000000000000e+00  0.0000000000000000e+00 0.0000000000000000e+00 0.0000000000000000e+00  0.0000000000000000e+00 0.0000000000000000e+00 0.0000000000000000e+00  0.0000000000000000e+00 0.0000000000000000e+00 0.0000000000000000e+00  0.0000000000000000e+00 0.0000000000000000e+00 0.0000000000000000e+00  0.0000000000000000e+00 0.0000000000000000e+00 0.0000000000000000e+00  0.0000000000000000e+00 0.0000000000000000e+00 0.0000000000000000e+00  0.0000000000000000e+00 0.0000000000000000e+00 0.0000000000000000e+00  0.0000000000000000e+00 0.0000000000000000e+00 0.0000000000000000e+00  0.0000000000000000e+00 0.0000000000000000e+00 0.0000000000000000e+00  0.0000000000000000e+00 0.0000000000000000e+00 0.0000000000000000e+00  0.0000000000000000e+00 0.0000000000000000e+00 0.0000000000000000e+00  0.0000000000000000e+00 0.0000000000000000e+00 0.0000000000000000e+00  0.0000000000000000e+00 0.0000000000000000e+00 0.0000000000000000e+00  0.0000000000000000e+00 0.0000000000000000e+00 0.0000000000000000e+00  0.0000000000000000e+00 0.0000000000000000e+00 0.0000000000000000e+00  0.0000000000000000e+00 0.0000000000000000e+00 0.0000000000000000e+00  0.0000000000000000e+00 0.0000000000000000e+00 0.0000000000000000e+00  0.0000000000000000e+00 0.0000000000000000e+00 0.0000000000000000e+00  0.0000000000000000e+00 0.0000000000000000e+00 0.0000000000000000e+00  0.0000000000000000e+00 0.0000000000000000e+00 0.0000000000000000e+00  0.0000000000000000e+00 0.0000000000000000e+00 0.0000000000000000e+00  0.0000000000000000e+00 0.0000000000000000e+00 0.0000000000000000e+00  0.0000000000000000e+00 0.0000000000000000e+00 0.0000000000000000e+00  1.0085227305490976e-07 -6.2455034661290801e-08 0.0000000000000000e+00  -1.6965850454803405e-07 1.0574510934711477e-07 0.0000000000000000e+00  -7.5808070154819347e-08 6.7713277457924037e-09 0.0000000000000000e+00  -2.7479591257322234e-07 -2.5528550853429682e-08 0.0000000000000000e+00  -2.7435064621940248e-07 -5.2779604427118924e-08 0.0000000000000000e+00  -2.7851215275265891e-07 -6.0070773955674842e-08 0.0000000000000000e+00  -2.8547045526708408e-07 -5.5362992092112565e-08 0.0000000000000000e+00  -2.8027074918694676e-07 -4.7918090581654833e-08 0.0000000000000000e+00  -2.7483579244600358e-07 -3.9100004661408933e-08 0.0000000000000000e+00  -2.6954364618887274e-07 -3.0073703992744289e-08 0.0000000000000000e+00  -2.6589990157990637e-07 -2.1294066002042372e-08 0.0000000000000000e+00  -2.6533911301651797e-07 -1.2874000262758086e-08 0.0000000000000000e+00  -2.6846735702150422e-07 -4.8636469172342110e-09 0.0000000000000000e+00  -2.7575512607425787e-07 2.7560371739052300e-09 0.0000000000000000e+00  -2.8749813378611450e-07 1.0039455629500908e-08 0.0000000000000000e+00  -3.0388448875532095e-07 1.7047707082167626e-08 0.0000000000000000e+00  -3.2504060576212232e-07 2.3817793812938186e-08 0.0000000000000000e+00  -3.5101944398718108e-07 3.0327054046284476e-08 0.0000000000000000e+00  -3.8176047865469933e-07 3.6460249081156053e-08 0.0000000000000000e+00  -4.1701908519742456e-07 4.1989512892413489e-08 0.0000000000000000e+00  -4.5628073060377759e-07 4.6578047143309875e-08 0.0000000000000000e+00  -4.9868574494988757e-07 4.9814438308797143e-08 0.0000000000000000e+00  -5.4298960319906239e-07 5.1275330925922804e-08 0.0000000000000000e+00  -5.8758640650662366e-07 5.0603281150131455e-08 0.0000000000000000e+00  -6.3059304942155139e-07 4.7579189412158129e-08 0.0000000000000000e+00  -6.7000334532079573e-07 4.2167846091375930e-08 0.0000000000000000e+00  -7.0383944732216791e-07 3.4526035985991848e-08 0.0000000000000000e+00  -7.3035392251073870e-07 2.4967988605430052e-08 0.0000000000000000e+00  -7.4806568569878918e-07 1.3913906055986141e-08 0.0000000000000000e+00  -7.5599615535715289e-07 1.8053529786366494e-09 0.0000000000000000e+00  -7.5331170284867634e-07 -1.0914086097832274e-08 0.0000000000000000e+00  -7.4003126585190246e-07 -2.3932935205711658e-08 0.0000000000000000e+00  -7.1540824878120083e-07 -3.6874028986836588e-08 0.0000000000000000e+00  -6.8107810666580804e-07 -4.9778717765644242e-08 0.0000000000000000e+00  -6.3433687772611026e-07 -6.1986718835545758e-08 0.0000000000000000e+00  -5.8188524708578151e-07 -7.4553957201737198e-08 0.0000000000000000e+00  -5.1137393116555701e-07 -8.4785280667567747e-08 0.0000000000000000e+00  -4.4999754793441078e-07 -9.8078476875436363e-08 0.0000000000000000e+00  -3.4428738620341429e-07 -1.0194088410588582e-07 0.0000000000000000e+00  -3.0606765103340591e-07 -1.2177665529217309e-07 0.0000000000000000e+00  -1.1198676750528558e-07 -1.0108168478377288e-07 0.0000000000000000e+00  -2.1700773402064817e-07 -1.5434923372199865e-07 0.0000000000000000e+00  2.8263809895953261e-07 -3.5977005214150863e-08 0.0000000000000000e+00  -4.4346061986401341e-07 -2.4387740850460061e-07 0.0000000000000000e+00  1.1377212528884867e-06 2.3044759689553050e-07 0.0000000000000000e+00  -2.3929450731898636e-06 -7.6504906294759002e-07 0.0000000000000000e+00  2.9264822146021099e-06 1.2975399322503013e-06 0.0000000000000000e+00  0.0000000000000000e+00 0.0000000000000000e+00 0.0000000000000000e+00  0.0000000000000000e+00 0.0000000000000000e+00 0.0000000000000000e+00  -1.3454504351579864e-06 5.9871739136419025e-07 0.0000000000000000e+00  7.3590451500743450e-07 -2.9207188520755408e-08 0.0000000000000000e+00  -1.1889320920611547e-07 1.3591113621746348e-07 0.0000000000000000e+00  -2.7885100521362433e-07 2.3856548189212504e-08 0.0000000000000000e+00  -3.0204803714783563e-07 -2.6638177889647602e-08 0.0000000000000000e+00  -3.7414391250941513e-07 -5.1668005711751503e-08 0.0000000000000000e+00  -3.8788054609051783e-07 -6.0542893889673483e-08 0.0000000000000000e+00  -3.9131759352199617e-07 -6.0088313154344503e-08 0.0000000000000000e+00  -3.8972698781856064e-07 -5.3871347017488465e-08 0.0000000000000000e+00  -3.8434996739128937e-07 -4.4379356306626944e-08 0.0000000000000000e+00  -3.7991087344676293e-07 -3.2943142003490025e-08 0.0000000000000000e+00  -3.7779046603445952e-07 -2.0423580291128404e-08 0.0000000000000000e+00  -3.7911452802103784e-07 -7.3738683494179070e-09 0.0000000000000000e+00  -3.8464386356844865e-07 5.8830926025484907e-09 0.0000000000000000e+00  -3.9478641539755467e-07 1.9174353692628271e-08 0.0000000000000000e+00  -4.0980432238011073e-07 3.2409026541296224e-08 0.0000000000000000e+00  -4.2984057701958506e-07 4.5506072417315068e-08 0.0000000000000000e+00  -4.5493547944485364e-07 5.8313614508733055e-08 0.0000000000000000e+00  -4.8499723686652248e-07 7.0531447773175041e-08 0.0000000000000000e+00  -5.1972773079593863e-07 8.1656487420173850e-08 0.0000000000000000e+00  -5.5852435436511341e-07 9.0975274096495364e-08 0.0000000000000000e+00  -6.0038824527123671e-07 9.7621721460490685e-08 0.0000000000000000e+00  -6.4387503399698811e-07 1.0069932612028851e-07 0.0000000000000000e+00  -6.8712751821241165e-07 9.9442121266876299e-08 0.0000000000000000e+00  -7.2799036342907051e-07 9.3369736735204021e-08 0.0000000000000000e+00  -7.6421358083788822e-07 8.2388735249231811e-08 0.0000000000000000e+00  -7.9365146786711561e-07 6.6812813510530263e-08 0.0000000000000000e+00  -8.1450591253712016e-07 4.7295071018772216e-08 0.0000000000000000e+00  -8.2536470029382422e-07 2.4712820676983757e-08 0.0000000000000000e+00  -8.2544256528516825e-07 8.2890178982892691e-12 0.0000000000000000e+00  -8.1416179037876260e-07 -2.5893466998906470e-08 0.0000000000000000e+00  -7.9188687968126207e-07 -5.2260837526128240e-08 0.0000000000000000e+00  -7.5817090004525676e-07 -7.8372700890932858e-08 0.0000000000000000e+00  -7.1508460623349437e-07 -1.0398616200496362e-07 0.0000000000000000e+00  -6.6015619204282033e-07 -1.2822080248964843e-07 0.0000000000000000e+00  -6.0071084670031539e-07 -1.5184144687479389e-07 0.0000000000000000e+00  -5.2449313114275076e-07 -1.7202533484955639e-07 0.0000000000000000e+00  -4.5976007345730815e-07 -1.9342108977612009e-07 0.0000000000000000e+00  -3.5305693940770817e-07 -2.0397701752757255e-07 0.0000000000000000e+00  -3.1761355198576208e-07 -2.2615558732631387e-07 0.0000000000000000e+00  -1.3131651822301145e-07 -2.0782690646004975e-07 0.0000000000000000e+00  -2.4809854074370345e-07 -2.5113963760971387e-07 0.0000000000000000e+00  2.2413469908517163e-07 -1.3645267934630231e-07 0.0000000000000000e+00  -5.1842356235786360e-07 -3.0990619669099584e-07 0.0000000000000000e+00  9.5275720423618644e-07 1.2542416412812822e-07 0.0000000000000000e+00  -2.4248021201699128e-06 -6.5409020074105212e-07 0.0000000000000000e+00  2.7845168314842944e-06 1.2996919235756540e-06 0.0000000000000000e+00  0.0000000000000000e+00 0.0000000000000000e+00 0.0000000000000000e+00  0.0000000000000000e+00 0.0000000000000000e+00 0.0000000000000000e+00  -2.4616463327378718e-06 1.0729607775564514e-06 0.0000000000000000e+00  1.6673269635188483e-06 -1.2693957784150034e-07 0.0000000000000000e+00  -4.0535927299694510e-07 2.9827269103897448e-07 0.0000000000000000e+00  -2.7025372116074090e-09 5.3004090107534629e-08 0.0000000000000000e+00  -1.5382993209206405e-07 2.7363062765131503e-08 0.0000000000000000e+00  -2.2244351718253025e-07 -2.5360690802570416e-08 0.0000000000000000e+00  -2.5123087537200422e-07 -4.6567603293952282e-08 0.0000000000000000e+00  -2.9054636759995081e-07 -5.4172891203692306e-08 0.0000000000000000e+00  -3.1410058376951719e-07 -5.1995781619163241e-08 0.0000000000000000e+00  -3.3215885175056647e-07 -4.3495547356120397e-08 0.0000000000000000e+00  -3.4703124383760554e-07 -3.1078163935199208e-08 0.0000000000000000e+00  -3.6000736870253525e-07 -1.6279808153410309e-08 0.0000000000000000e+00  -3.7301180986458689e-07 -1.2690627985287722e-10 0.0000000000000000e+00  -3.8706393238943043e-07 1.6738157956633533e-08 0.0000000000000000e+00  -4.0294980461967307e-07 3.3936154565399445e-08 0.0000000000000000e+00  -4.2123825029598172e-07 5.1251862279139744e-08 0.0000000000000000e+00  -4.4232228644055421e-07 6.8526584751166885e-08 0.0000000000000000e+00  -4.6647342917830681e-07 8.5533379000109096e-08 0.0000000000000000e+00  -4.9381871771605303e-07 1.0184990729002684e-07 0.0000000000000000e+00  -5.2427196635628192e-07 1.1675801433829662e-07 0.0000000000000000e+00  -5.5742459450738503e-07 1.2921365036123812e-07 0.0000000000000000e+00  -5.9243430071400002e-07 1.3792395870282023e-07 0.0000000000000000e+00  -6.2796334900830706e-07 1.4153692381201641e-07 0.0000000000000000e+00  -6.6222239710987841e-07 1.3890259837057345e-07 0.0000000000000000e+00  -6.9312619647804859e-07 1.2932736726756340e-07 0.0000000000000000e+00  -7.1855946135142063e-07 1.1273619680496841e-07 0.0000000000000000e+00  -7.3663259304040499e-07 8.9693935987580408e-08 0.0000000000000000e+00  -7.4595812503035307e-07 6.1281843819375699e-08 0.0000000000000000e+00  -7.4567374815344147e-07 2.8894771765774898e-08 0.0000000000000000e+00  -7.3565139048330447e-07 -6.0086023971614007e-09 0.0000000000000000e+00  -7.1599764522430813e-07 -4.2052409854774266e-08 0.0000000000000000e+00  -6.8777739067574461e-07 -7.8155910846140803e-08 0.0000000000000000e+00  -6.5114592176236558e-07 -1.1334312291574193e-07 0.0000000000000000e+00  -6.0881590541394393e-07 -1.4719875576419215e-07 0.0000000000000000e+00  -5.5872828018709204e-07 -1.7869838205410085e-07 0.0000000000000000e+00  -5.0890156193552614e-07 -2.0847068418539490e-07 0.0000000000000000e+00  -4.4720885010029167e-07 -2.3353853072082422e-07 0.0000000000000000e+00  -4.0289472268258235e-07 -2.5822880036222204e-07 0.0000000000000000e+00  -3.2214207927307699e-07 -2.7053349970354172e-07 0.0000000000000000e+00  -3.1925545949434887e-07 -2.9171248535177207e-07 0.0000000000000000e+00  -1.7212656358864520e-07 -2.7226316586803468e-07 0.0000000000000000e+00  -3.3079521693404068e-07 -3.0832974399085329e-07 0.0000000000000000e+00  8.5219727645363025e-08 -1.9972821510990841e-07 0.0000000000000000e+00  -6.8746971072867842e-07 -3.5506239159071934e-07 0.0000000000000000e+00  6.9983086139237233e-07 2.7180111346456432e-08 0.0000000000000000e+00  -2.6088077175648645e-06 -6.4057617611586885e-07 0.0000000000000000e+00  2.4153480463503616e-06 1.0645171072792575e-06 0.0000000000000000e+00  0.0000000000000000e+00 0.0000000000000000e+00 0.0000000000000000e+00  0.0000000000000000e+00 0.0000000000000000e+00 0.0000000000000000e+00  -2.7292996578009880e-06 1.1244075684757084e-06 0.0000000000000000e+00  2.2683384982418229e-06 -1.5542291528177222e-07 0.0000000000000000e+00  -7.2096231960236786e-07 3.7880628133518803e-07 0.0000000000000000e+00  2.5922463067476262e-07 6.8680548907018133e-08 0.0000000000000000e+00  -1.7386658409161496e-07 1.0406971762614217e-07 0.0000000000000000e+00  -1.2531617400036370e-07 2.2139252692254569e-08 0.0000000000000000e+00  -1.8241501876221358e-07 -1.2558705175986268e-09 0.0000000000000000e+00  -2.2764000450841740e-07 -2.0853061360175761e-08 0.0000000000000000e+00  -2.5776737194976603e-07 -2.6081600835865301e-08 0.0000000000000000e+00  -2.8683715588036761e-07 -2.3090782266555731e-08 0.0000000000000000e+00  -3.1011028705600306e-07 -1.4011261137734210e-08 0.0000000000000000e+00  -3.3059647706559930e-07 -8.1885439480692431e-10 0.0000000000000000e+00  -3.4959492116218241e-07 1.5022248018384450e-08 0.0000000000000000e+00  -3.6796559147925291e-07 3.2529394574717181e-08 0.0000000000000000e+00  -3.8657093141323126e-07 5.1045797654218620e-08 0.0000000000000000e+00  -4.0598081660054846e-07 7.0169020125134961e-08 0.0000000000000000e+00  -4.2665392753204795e-07 8.9617691571767098e-08 0.0000000000000000e+00  -4.4896174192460399e-07 1.0907038026067346e-07 0.0000000000000000e+00  -4.7317308139385979e-07 1.2798009192190221e-07 0.0000000000000000e+00  -4.9937935516557748e-07 1.4540769513021359e-07 0.0000000000000000e+00  -5.2734929930669276e-07 1.5994831413956874e-07 0.0000000000000000e+00  -5.5636808321518791e-07 1.6982122996263728e-07 0.0000000000000000e+00  -5.8513624396348514e-07 1.7314584460780159e-07 0.0000000000000000e+00  -6.1181772815824709e-07 1.6834208805688296e-07 0.0000000000000000e+00  -6.3425655292867501e-07 1.5452157187350304e-07 0.0000000000000000e+00  -6.5034549534232880e-07 1.3172401034099824e-07 0.0000000000000000e+00  -6.5837426846430287e-07 1.0091905403069436e-07 0.0000000000000000e+00  -6.5735669074070349e-07 6.3783652832313889e-08 0.0000000000000000e+00  -6.4701682540897064e-07 2.2365582052230651e-08 0.0000000000000000e+00  -6.2794317499372865e-07 -2.1284475054888661e-08 0.0000000000000000e+00  -6.0094544921954475e-07 -6.5330949272735601e-08 0.0000000000000000e+00  -5.6778573696621654e-07 -1.0838214027773281e-07 0.0000000000000000e+00  -5.2908450292995625e-07 -1.4927851955492344e-07 0.0000000000000000e+00  -4.8810748216405341e-07 -1.8749366756350654e-07 0.0000000000000000e+00  -4.4278857520963592e-07 -2.2194264174453009e-07 0.0000000000000000e+00  -4.0182772419181055e-07 -2.5313108459846007e-07 0.0000000000000000e+00  -3.5211849425940516e-07 -2.7807694965778965e-07 0.0000000000000000e+00  -3.2464107915557054e-07 -3.0072554541280315e-07 0.0000000000000000e+00  -2.6180692385637773e-07 -3.0963008202704347e-07 0.0000000000000000e+00  -2.8348444180177096e-07 -3.2466748306273416e-07 0.0000000000000000e+00  -1.5531180508738600e-07 -3.0042007627695208e-07 0.0000000000000000e+00  -3.4490491155763652e-07 -3.2649901771127739e-07 0.0000000000000000e+00  6.3607739950156961e-08 -2.2301140111645246e-07 0.0000000000000000e+00  -7.4197428269229828e-07 -3.6167217085460597e-07 0.0000000000000000e+00  6.6710952685915428e-07 -2.5784033596548889e-08 0.0000000000000000e+00  -2.6469695218501823e-06 -6.1302040919993707e-07 0.0000000000000000e+00  2.4071544818855157e-06 8.9581125357699632e-07 0.0000000000000000e+00  0.0000000000000000e+00 0.0000000000000000e+00 0.0000000000000000e+00  0.0000000000000000e+00 0.0000000000000000e+00 0.0000000000000000e+00  -2.6813833551450296e-06 1.0306279273766113e-06 0.0000000000000000e+00  2.5106110857212702e-06 -1.3303168955309815e-07 0.0000000000000000e+00  -8.6449919745968392e-07 3.8204657754791637e-07 0.0000000000000000e+00  4.7035581855046247e-07 8.3483127264959203e-08 0.0000000000000000e+00  -2.1988812443041864e-07 1.6161407553603746e-07 0.0000000000000000e+00  -7.4874645109609160e-09 6.3037992495551487e-08 0.0000000000000000e+00  -1.2702361842102819e-07 4.7653757738771042e-08 0.0000000000000000e+00  -1.4923119187607461e-07 1.7609819637451736e-08 0.0000000000000000e+00  -1.8750320542984329e-07 8.0485428322436389e-09 0.0000000000000000e+00  -2.2209655403127352e-07 5.4727703485990770e-09 0.0000000000000000e+00  -2.5066577314091751e-07 1.0836035596231595e-08 0.0000000000000000e+00  -2.7715324049456117e-07 2.1400012694938977e-08 0.0000000000000000e+00  -3.0104606795311349e-07 3.5667962486723012e-08 0.0000000000000000e+00  -3.2339917398368945e-07 5.2413634289468697e-08 0.0000000000000000e+00  -3.4485961950437797e-07 7.0772936875843887e-08 0.0000000000000000e+00  -3.6590564727233196e-07 9.0207009947092593e-08 0.0000000000000000e+00  -3.8700104027608856e-07 1.1036020567045855e-07 0.0000000000000000e+00  -4.0856640436754987e-07 1.3088369946421669e-07 0.0000000000000000e+00  -4.3100397969324640e-07 1.5117934905004742e-07 0.0000000000000000e+00  -4.5460102859050026e-07 1.7013776440357923e-07 0.0000000000000000e+00  -4.7932821813201748e-07 1.8598326025348472e-07 0.0000000000000000e+00  -5.0459055207613326e-07 1.9636180432824851e-07 0.0000000000000000e+00  -5.2904946168241283e-07 1.9873637136847160e-07 0.0000000000000000e+00  -5.5066828285982093e-07 1.9099970352616301e-07 0.0000000000000000e+00  -5.6702955882094126e-07 1.7207430851889896e-07 0.0000000000000000e+00  -5.7587618324886195e-07 1.4224753327916479e-07 0.0000000000000000e+00  -5.7561227610263763e-07 1.0311590846889178e-07 0.0000000000000000e+00  -5.6569350252118062e-07 5.7186028323360521e-08 0.0000000000000000e+00  -5.4654260127069461e-07 7.3297300225959804e-09 0.0000000000000000e+00  -5.1958219823977828e-07 -4.3744197181721804e-08 0.0000000000000000e+00  -4.8640416678952448e-07 -9.3779134254596907e-08 0.0000000000000000e+00  -4.4945856179346301e-07 -1.4118979346468820e-07 0.0000000000000000e+00  -4.0977238446554229e-07 -1.8478893485379306e-07 0.0000000000000000e+00  -3.7098122061442540e-07 -2.2411018723482276e-07 0.00000