<?xml version="1.0"?>
<VTKFile type="UnstructuredGrid"  version="0.1"  >
<UnstructuredGrid>
<Piece  NumberOfPoints="1617" NumberOfCells="3072">
<Points>
<DataArray  type="Float64"  NumberOfComponents="3"  format="ascii">0 0 0  0.03125 0 0  0.0625 0 0  0.09375 0 0  0.125 0 0  0.15625 0 0  0.1875 0 0  0.21875 0 0  0.25 0 0  0.28125 0 0  0.3125 0 0  0.34375 0 0  0.375 0 0  0.40625 0 0  0.4375 0 0  0.46875 0 0  0.5 0 0  0.53125 0 0  0.5625 0 0  0.59375 0 0  0.625 0 0  0.65625 0 0  0.6875 0 0  0.71875 0 0  0.75 0 0  0.78125 0 0  0.8125 0 0  0.84375 0 0  0.875 0 0  0.90625 0 0  0.9375 0 0  0.96875 0 0  1 0 0  1.03125 0 0  1.0625 0 0  1.09375 0 0  1.125 0 0  1.15625 0 0  1.1875 0 0  1.21875 0 0  1.25 0 0  1.28125 0 0  1.3125 0 0  1.34375 0 0  1.375 0 0  1.40625 0 0  1.4375 0 0  1.46875 0 0  1.5 0 0  0 0.03125 0  0.03125 0.03125 0  0.0625 0.03125 0  0.09375 0.03125 0  0.125 0.03125 0  0.15625 0.03125 0  0.1875 0.03125 0  0.21875 0.03125 0  0.25 0.03125 0  0.28125 0.03125 0  0.3125 0.03125 0  0.34375 0.03125 0  0.375 0.03125 0  0.40625 0.03125 0  0.4375 0.03125 0  0.46875 0.03125 0  0.5 0.03125 0  0.53125 0.03125 0  0.5625 0.03125 0  0.59375 0.03125 0  0.625 0.03125 0  0.65625 0.03125 0  0.6875 0.03125 0  0.71875 0.03125 0  0.75 0.03125 0  0.78125 0.03125 0  0.8125 0.03125 0  0.84375 0.03125 0  0.875 0.03125 0  0.90625 0.03125 0  0.9375 0.03125 0  0.96875 0.03125 0  1 0.03125 0  1.03125 0.03125 0  1.0625 0.03125 0  1.09375 0.03125 0  1.125 0.03125 0  1.15625 0.03125 0  1.1875 0.03125 0  1.21875 0.03125 0  1.25 0.03125 0  1.28125 0.03125 0  1.3125 0.03125 0  1.34375 0.03125 0  1.375 0.03125 0  1.40625 0.03125 0  1.4375 0.03125 0  1.46875 0.03125 0  1.5 0.03125 0  0 0.0625 0  0.03125 0.0625 0  0.0625 0.0625 0  0.09375 0.0625 0  0.125 0.0625 0  0.15625 0.0625 0  0.1875 0.0625 0  0.21875 0.0625 0  0.25 0.0625 0  0.28125 0.0625 0  0.3125 0.0625 0  0.34375 0.0625 0  0.375 0.0625 0  0.40625 0.0625 0  0.4375 0.0625 0  0.46875 0.0625 0  0.5 0.0625 0  0.53125 0.0625 0  0.5625 0.0625 0  0.59375 0.0625 0  0.625 0.0625 0  0.65625 0.0625 0  0.6875 0.0625 0  0.71875 0.0625 0  0.75 0.0625 0  0.78125 0.0625 0  0.8125 0.0625 0  0.84375 0.0625 0  0.875 0.0625 0  0.90625 0.0625 0  0.9375 0.0625 0  0.96875 0.0625 0  1 0.0625 0  1.03125 0.0625 0  1.0625 0.0625 0  1.09375 0.0625 0  1.125 0.0625 0  1.15625 0.0625 0  1.1875 0.0625 0  1.21875 0.0625 0  1.25 0.0625 0  1.28125 0.0625 0  1.3125 0.0625 0  1.34375 0.0625 0  1.375 0.0625 0  1.40625 0.0625 0  1.4375 0.0625 0  1.46875 0.0625 0  1.5 0.0625 0  0 0.09375 0  0.03125 0.09375 0  0.0625 0.09375 0  0.09375 0.09375 0  0.125 0.09375 0  0.15625 0.09375 0  0.1875 0.09375 0  0.21875 0.09375 0  0.25 0.09375 0  0.28125 0.09375 0  0.3125 0.09375 0  0.34375 0.09375 0  0.375 0.09375 0  0.40625 0.09375 0  0.4375 0.09375 0  0.46875 0.09375 0  0.5 0.09375 0  0.53125 0.09375 0  0.5625 0.09375 0  0.59375 0.09375 0  0.625 0.09375 0  0.65625 0.09375 0  0.6875 0.09375 0  0.71875 0.09375 0  0.75 0.09375 0  0.78125 0.09375 0  0.8125 0.09375 0  0.84375 0.09375 0  0.875 0.09375 0  0.90625 0.09375 0  0.9375 0.09375 0  0.96875 0.09375 0  1 0.09375 0  1.03125 0.09375 0  1.0625 0.09375 0  1.09375 0.09375 0  1.125 0.09375 0  1.15625 0.09375 0  1.1875 0.09375 0  1.21875 0.09375 0  1.25 0.09375 0  1.28125 0.09375 0  1.3125 0.09375 0  1.34375 0.09375 0  1.375 0.09375 0  1.40625 0.09375 0  1.4375 0.09375 0  1.46875 0.09375 0  1.5 0.09375 0  0 0.125 0  0.03125 0.125 0  0.0625 0.125 0  0.09375 0.125 0  0.125 0.125 0  0.15625 0.125 0  0.1875 0.125 0  0.21875 0.125 0  0.25 0.125 0  0.28125 0.125 0  0.3125 0.125 0  0.34375 0.125 0  0.375 0.125 0  0.40625 0.125 0  0.4375 0.125 0  0.46875 0.125 0  0.5 0.125 0  0.53125 0.125 0  0.5625 0.125 0  0.59375 0.125 0  0.625 0.125 0  0.65625 0.125 0  0.6875 0.125 0  0.71875 0.125 0  0.75 0.125 0  0.78125 0.125 0  0.8125 0.125 0  0.84375 0.125 0  0.875 0.125 0  0.90625 0.125 0  0.9375 0.125 0  0.96875 0.125 0  1 0.125 0  1.03125 0.125 0  1.0625 0.125 0  1.09375 0.125 0  1.125 0.125 0  1.15625 0.125 0  1.1875 0.125 0  1.21875 0.125 0  1.25 0.125 0  1.28125 0.125 0  1.3125 0.125 0  1.34375 0.125 0  1.375 0.125 0  1.40625 0.125 0  1.4375 0.125 0  1.46875 0.125 0  1.5 0.125 0  0 0.15625 0  0.03125 0.15625 0  0.0625 0.15625 0  0.09375 0.15625 0  0.125 0.15625 0  0.15625 0.15625 0  0.1875 0.15625 0  0.21875 0.15625 0  0.25 0.15625 0  0.28125 0.15625 0  0.3125 0.15625 0  0.34375 0.15625 0  0.375 0.15625 0  0.40625 0.15625 0  0.4375 0.15625 0  0.46875 0.15625 0  0.5 0.15625 0  0.53125 0.15625 0  0.5625 0.15625 0  0.59375 0.15625 0  0.625 0.15625 0  0.65625 0.15625 0  0.6875 0.15625 0  0.71875 0.15625 0  0.75 0.15625 0  0.78125 0.15625 0  0.8125 0.15625 0  0.84375 0.15625 0  0.875 0.15625 0  0.90625 0.15625 0  0.9375 0.15625 0  0.96875 0.15625 0  1 0.15625 0  1.03125 0.15625 0  1.0625 0.15625 0  1.09375 0.15625 0  1.125 0.15625 0  1.15625 0.15625 0  1.1875 0.15625 0  1.21875 0.15625 0  1.25 0.15625 0  1.28125 0.15625 0  1.3125 0.15625 0  1.34375 0.15625 0  1.375 0.15625 0  1.40625 0.15625 0  1.4375 0.15625 0  1.46875 0.15625 0  1.5 0.15625 0  0 0.1875 0  0.03125 0.1875 0  0.0625 0.1875 0  0.09375 0.1875 0  0.125 0.1875 0  0.15625 0.1875 0  0.1875 0.1875 0  0.21875 0.1875 0  0.25 0.1875 0  0.28125 0.1875 0  0.3125 0.1875 0  0.34375 0.1875 0  0.375 0.1875 0  0.40625 0.1875 0  0.4375 0.1875 0  0.46875 0.1875 0  0.5 0.1875 0  0.53125 0.1875 0  0.5625 0.1875 0  0.59375 0.1875 0  0.625 0.1875 0  0.65625 0.1875 0  0.6875 0.1875 0  0.71875 0.1875 0  0.75 0.1875 0  0.78125 0.1875 0  0.8125 0.1875 0  0.84375 0.1875 0  0.875 0.1875 0  0.90625 0.1875 0  0.9375 0.1875 0  0.96875 0.1875 0  1 0.1875 0  1.03125 0.1875 0  1.0625 0.1875 0  1.09375 0.1875 0  1.125 0.1875 0  1.15625 0.1875 0  1.1875 0.1875 0  1.21875 0.1875 0  1.25 0.1875 0  1.28125 0.1875 0  1.3125 0.1875 0  1.34375 0.1875 0  1.375 0.1875 0  1.40625 0.1875 0  1.4375 0.1875 0  1.46875 0.1875 0  1.5 0.1875 0  0 0.21875 0  0.03125 0.21875 0  0.0625 0.21875 0  0.09375 0.21875 0  0.125 0.21875 0  0.15625 0.21875 0  0.1875 0.21875 0  0.21875 0.21875 0  0.25 0.21875 0  0.28125 0.21875 0  0.3125 0.21875 0  0.34375 0.21875 0  0.375 0.21875 0  0.40625 0.21875 0  0.4375 0.21875 0  0.46875 0.21875 0  0.5 0.21875 0  0.53125 0.21875 0  0.5625 0.21875 0  0.59375 0.21875 0  0.625 0.21875 0  0.65625 0.21875 0  0.6875 0.21875 0  0.71875 0.21875 0  0.75 0.21875 0  0.78125 0.21875 0  0.8125 0.21875 0  0.84375 0.21875 0  0.875 0.21875 0  0.90625 0.21875 0  0.9375 0.21875 0  0.96875 0.21875 0  1 0.21875 0  1.03125 0.21875 0  1.0625 0.21875 0  1.09375 0.21875 0  1.125 0.21875 0  1.15625 0.21875 0  1.1875 0.21875 0  1.21875 0.21875 0  1.25 0.21875 0  1.28125 0.21875 0  1.3125 0.21875 0  1.34375 0.21875 0  1.375 0.21875 0  1.40625 0.21875 0  1.4375 0.21875 0  1.46875 0.21875 0  1.5 0.21875 0  0 0.25 0  0.03125 0.25 0  0.0625 0.25 0  0.09375 0.25 0  0.125 0.25 0  0.15625 0.25 0  0.1875 0.25 0  0.21875 0.25 0  0.25 0.25 0  0.28125 0.25 0  0.3125 0.25 0  0.34375 0.25 0  0.375 0.25 0  0.40625 0.25 0  0.4375 0.25 0  0.46875 0.25 0  0.5 0.25 0  0.53125 0.25 0  0.5625 0.25 0  0.59375 0.25 0  0.625 0.25 0  0.65625 0.25 0  0.6875 0.25 0  0.71875 0.25 0  0.75 0.25 0  0.78125 0.25 0  0.8125 0.25 0  0.84375 0.25 0  0.875 0.25 0  0.90625 0.25 0  0.9375 0.25 0  0.96875 0.25 0  1 0.25 0  1.03125 0.25 0  1.0625 0.25 0  1.09375 0.25 0  1.125 0.25 0  1.15625 0.25 0  1.1875 0.25 0  1.21875 0.25 0  1.25 0.25 0  1.28125 0.25 0  1.3125 0.25 0  1.34375 0.25 0  1.375 0.25 0  1.40625 0.25 0  1.4375 0.25 0  1.46875 0.25 0  1.5 0.25 0  0 0.28125 0  0.03125 0.28125 0  0.0625 0.28125 0  0.09375 0.28125 0  0.125 0.28125 0  0.15625 0.28125 0  0.1875 0.28125 0  0.21875 0.28125 0  0.25 0.28125 0  0.28125 0.28125 0  0.3125 0.28125 0  0.34375 0.28125 0  0.375 0.28125 0  0.40625 0.28125 0  0.4375 0.28125 0  0.46875 0.28125 0  0.5 0.28125 0  0.53125 0.28125 0  0.5625 0.28125 0  0.59375 0.28125 0  0.625 0.28125 0  0.65625 0.28125 0  0.6875 0.28125 0  0.71875 0.28125 0  0.75 0.28125 0  0.78125 0.28125 0  0.8125 0.28125 0  0.84375 0.28125 0  0.875 0.28125 0  0.90625 0.28125 0  0.9375 0.28125 0  0.96875 0.28125 0  1 0.28125 0  1.03125 0.28125 0  1.0625 0.28125 0  1.09375 0.28125 0  1.125 0.28125 0  1.15625 0.28125 0  1.1875 0.28125 0  1.21875 0.28125 0  1.25 0.28125 0  1.28125 0.28125 0  1.3125 0.28125 0  1.34375 0.28125 0  1.375 0.28125 0  1.40625 0.28125 0  1.4375 0.28125 0  1.46875 0.28125 0  1.5 0.28125 0  0 0.3125 0  0.03125 0.3125 0  0.0625 0.3125 0  0.09375 0.3125 0  0.125 0.3125 0  0.15625 0.3125 0  0.1875 0.3125 0  0.21875 0.3125 0  0.25 0.3125 0  0.28125 0.3125 0  0.3125 0.3125 0  0.34375 0.3125 0  0.375 0.3125 0  0.40625 0.3125 0  0.4375 0.3125 0  0.46875 0.3125 0  0.5 0.3125 0  0.53125 0.3125 0  0.5625 0.3125 0  0.59375 0.3125 0  0.625 0.3125 0  0.65625 0.3125 0  0.6875 0.3125 0  0.71875 0.3125 0  0.75 0.3125 0  0.78125 0.3125 0  0.8125 0.3125 0  0.84375 0.3125 0  0.875 0.3125 0  0.90625 0.3125 0  0.9375 0.3125 0  0.96875 0.3125 0  1 0.3125 0  1.03125 0.3125 0  1.0625 0.3125 0  1.09375 0.3125 0  1.125 0.3125 0  1.15625 0.3125 0  1.1875 0.3125 0  1.21875 0.3125 0  1.25 0.3125 0  1.28125 0.3125 0  1.3125 0.3125 0  1.34375 0.3125 0  1.375 0.3125 0  1.40625 0.3125 0  1.4375 0.3125 0  1.46875 0.3125 0  1.5 0.3125 0  0 0.34375 0  0.03125 0.34375 0  0.0625 0.34375 0  0.09375 0.34375 0  0.125 0.34375 0  0.15625 0.34375 0  0.1875 0.34375 0  0.21875 0.34375 0  0.25 0.34375 0  0.28125 0.34375 0  0.3125 0.34375 0  0.34375 0.34375 0  0.375 0.34375 0  0.40625 0.34375 0  0.4375 0.34375 0  0.46875 0.34375 0  0.5 0.34375 0  0.53125 0.34375 0  0.5625 0.34375 0  0.59375 0.34375 0  0.625 0.34375 0  0.65625 0.34375 0  0.6875 0.34375 0  0.71875 0.34375 0  0.75 0.34375 0  0.78125 0.34375 0  0.8125 0.34375 0  0.84375 0.34375 0  0.875 0.34375 0  0.90625 0.34375 0  0.9375 0.34375 0  0.96875 0.34375 0  1 0.34375 0  1.03125 0.34375 0  1.0625 0.34375 0  1.09375 0.34375 0  1.125 0.34375 0  1.15625 0.34375 0  1.1875 0.34375 0  1.21875 0.34375 0  1.25 0.34375 0  1.28125 0.34375 0  1.3125 0.34375 0  1.34375 0.34375 0  1.375 0.34375 0  1
[...]
<PointData  Vectors="f_17"> 
<DataArray  type="Float64"  Name="f_17"  NumberOfComponents="3" format="ascii">0.0000000000000000e+00 0.0000000000000000e+00 0.0000000000000000e+00  0.0000000000000000e+00 0.0000000000000000e+00 0.0000000000000000e+00  0.0000000000000000e+00 0.0000000000000000e+00 0.0000000000000000e+00  0.0000000000000000e+00 0.0000000000000000e+00 0.0000000000000000e+00  0.0000000000000000e+00 0.0000000000000000e+00 0.0000000000000000e+00  0.0000000000000000e+00 0.0000000000000000e+00 0.0000000000000000e+00  0.0000000000000000e+00 0.0000000000000000e+00 0.0000000000000000e+00  0.0000000000000000e+00 0.0000000000000000e+00 0.0000000000000000e+00  0.0000000000000000e+00 0.0000000000000000e+00 0.0000000000000000e+00  0.0000000000000000e+00 0.0000000000000000e+00 0.0000000000000000e+00  0.0000000000000000e+00 0.0000000000000000e+00 0.0000000000000000e+00  0.0000000000000000e+00 0.0000000000000000e+00 0.0000000000000000e+00  0.0000000000000000e+00 0.0000000000000000e+00 0.0000000000000000e+00  0.0000000000000000e+00 0.0000000000000000e+00 0.0000000000000000e+00  0.0000000000000000e+00 0.0000000000000000e+00 0.0000000000000000e+00  0.0000000000000000e+00 0.0000000000000000e+00 0.0000000000000000e+00  0.0000000000000000e+00 0.0000000000000000e+00 0.0000000000000000e+00  0.0000000000000000e+00 0.0000000000000000e+00 0.0000000000000000e+00  0.0000000000000000e+00 0.0000000000000000e+00 0.0000000000000000e+00  0.0000000000000000e+00 0.0000000000000000e+00 0.0000000000000000e+00  0.0000000000000000e+00 0.0000000000000000e+00 0.0000000000000000e+00  0.0000000000000000e+00 0.0000000000000000e+00 0.0000000000000000e+00  0.0000000000000000e+00 0.0000000000000000e+00 0.0000000000000000e+00  0.0000000000000000e+00 0.0000000000000000e+00 0.0000000000000000e+00  0.0000000000000000e+00 0.0000000000000000e+00 0.0000000000000000e+00  0.0000000000000000e+00 0.0000000000000000e+00 0.0000000000000000e+00  0.0000000000000000e+00 0.0000000000000000e+00 0.0000000000000000e+00  0.0000000000000000e+00 0.0000000000000000e+00 0.0000000000000000e+00  0.0000000000000000e+00 0.0000000000000000e+00 0.0000000000000000e+00  0.0000000000000000e+00 0.0000000000000000e+00 0.0000000000000000e+00  0.0000000000000000e+00 0.0000000000000000e+00 0.0000000000000000e+00  0.0000000000000000e+00 0.0000000000000000e+00 0.0000000000000000e+00  0.0000000000000000e+00 0.0000000000000000e+00 0.0000000000000000e+00  0.0000000000000000e+00 0.0000000000000000e+00 0.0000000000000000e+00  0.0000000000000000e+00 0.0000000000000000e+00 0.0000000000000000e+00  0.0000000000000000e+00 0.0000000000000000e+00 0.0000000000000000e+00  0.0000000000000000e+00 0.0000000000000000e+00 0.0000000000000000e+00  0.0000000000000000e+00 0.0000000000000000e+00 0.0000000000000000e+00  0.0000000000000000e+00 0.0000000000000000e+00 0.0000000000000000e+00  0.0000000000000000e+00 0.0000000000000000e+00 0.0000000000000000e+00  0.0000000000000000e+00 0.0000000000000000e+00 0.0000000000000000e+00  0.0000000000000000e+00 0.0000000000000000e+00 0.0000000000000000e+00  0.0000000000000000e+00 0.0000000000000000e+00 0.0000000000000000e+00  0.0000000000000000e+00 0.0000000000000000e+00 0.0000000000000000e+00  0.0000000000000000e+00 0.0000000000000000e+00 0.0000000000000000e+00  0.0000000000000000e+00 0.0000000000000000e+00 0.0000000000000000e+00  0.0000000000000000e+00 0.0000000000000000e+00 0.0000000000000000e+00  0.0000000000000000e+00 0.0000000000000000e+00 0.0000000000000000e+00  0.0000000000000000e+00 0.0000000000000000e+00 0.0000000000000000e+00  0.0000000000000000e+00 0.0000000000000000e+00 0.0000000000000000e+00  2.1478453306732866e-07 2.0385501045074366e-08 0.0000000000000000e+00  -1.5325218368373170e-07 1.1195769731883374e-07 0.0000000000000000e+00  -1.6333834805072263e-07 -1.0256534718450597e-08 0.0000000000000000e+00  -3.7591815454795770e-07 -5.1728626347817873e-08 0.0000000000000000e+00  -3.6651806774834811e-07 -8.0039730824337580e-08 0.0000000000000000e+00  -3.5826218652367301e-07 -8.6397329561411060e-08 0.0000000000000000e+00  -3.5156257056384295e-07 -8.0496923764349530e-08 0.0000000000000000e+00  -3.3272262985960025e-07 -7.1925270708684413e-08 0.0000000000000000e+00  -3.1400776481118856e-07 -6.2105226880035613e-08 0.0000000000000000e+00  -2.9578532224515675e-07 -5.2168120807532571e-08 0.0000000000000000e+00  -2.7950351381800605e-07 -4.2534323013827935e-08 0.0000000000000000e+00  -2.6656097731205173e-07 -3.3304423850906506e-08 0.0000000000000000e+00  -2.5754726859404503e-07 -2.4531893624652791e-08 0.0000000000000000e+00  -2.5292136020315823e-07 -1.6208227654709311e-08 0.0000000000000000e+00  -2.5296375878281719e-07 -8.2909325381636431e-09 0.0000000000000000e+00  -2.5784104669442966e-07 -7.2831221983140364e-10 0.0000000000000000e+00  -2.6765337611179385e-07 6.5129012121385902e-09 0.0000000000000000e+00  -2.8242737949903522e-07 1.3414912630871646e-08 0.0000000000000000e+00  -3.0208331877852136e-07 1.9878354898289205e-08 0.0000000000000000e+00  -3.2637341570367916e-07 2.5703296677392852e-08 0.0000000000000000e+00  -3.5480534993220264e-07 3.0591708483180468e-08 0.0000000000000000e+00  -3.8657454048371050e-07 3.4177682979318160e-08 0.0000000000000000e+00  -4.2052764514611017e-07 3.6083385285196668e-08 0.0000000000000000e+00  -4.5518295254678803e-07 3.5988811704795861e-08 0.0000000000000000e+00  -4.8880455772154258e-07 3.3696745969157213e-08 0.0000000000000000e+00  -5.1954093284258221e-07 2.9173481831731880e-08 0.0000000000000000e+00  -5.4555831961430642e-07 2.2556061551270661e-08 0.0000000000000000e+00  -5.6522607173258284e-07 1.4120928089227827e-08 0.0000000000000000e+00  -5.7714054525428115e-07 4.2386961245889610e-09 0.0000000000000000e+00  -5.8035558341108363e-07 -6.7028519670518474e-09 0.0000000000000000e+00  -5.7402616232598610e-07 -1.8310856628378401e-08 0.0000000000000000e+00  -5.5812212436976503e-07 -3.0315847848810253e-08 0.0000000000000000e+00  -5.3182059422545263e-07 -4.2370504081232627e-08 0.0000000000000000e+00  -4.9666356522570020e-07 -5.4532520170110826e-08 0.0000000000000000e+00  -4.4984962340876606e-07 -6.6145012291951933e-08 0.0000000000000000e+00  -3.9798107762130349e-07 -7.8255726850315459e-08 0.0000000000000000e+00  -3.2862002365130149e-07 -8.8151933308150933e-08 0.0000000000000000e+00  -2.6884865503893008e-07 -1.0120403974712926e-07 0.0000000000000000e+00  -1.6504192319943964e-07 -1.0487663429773046e-07 0.0000000000000000e+00  -1.2867433077584892e-07 -1.2449593130557211e-07 0.0000000000000000e+00  6.4237318243169776e-08 -1.0337520505993625e-07 0.0000000000000000e+00  -4.0549528266975856e-08 -1.5568660582850032e-07 0.0000000000000000e+00  4.6013107754340946e-07 -3.5113189466992454e-08 0.0000000000000000e+00  -2.6170834800377488e-07 -2.3691821298840005e-07 0.0000000000000000e+00  1.3149079794797621e-06 2.4817945281971493e-07 0.0000000000000000e+00  -2.4191645488086181e-06 -7.4420464651523969e-07 0.0000000000000000e+00  2.7100272445019695e-06 1.3758901452093196e-06 0.0000000000000000e+00  0.0000000000000000e+00 0.0000000000000000e+00 0.0000000000000000e+00  0.0000000000000000e+00 0.0000000000000000e+00 0.0000000000000000e+00  -1.1387126562188303e-06 7.3167844993639946e-07 0.0000000000000000e+00  8.3108919375430512e-07 1.0469728844905880e-08 0.0000000000000000e+00  -1.8278675152080539e-07 1.3395982251879318e-07 0.0000000000000000e+00  -3.6877069303872631e-07 -6.0682405576936456e-10 0.0000000000000000e+00  -3.8983828867967283e-07 -6.0294158117195546e-08 0.0000000000000000e+00  -4.5519102222396212e-07 -8.8463366425090321e-08 0.0000000000000000e+00  -4.5824255345971242e-07 -9.8061201559308675e-08 0.0000000000000000e+00  -4.4922795284340896e-07 -9.7425300133900428e-08 0.0000000000000000e+00  -4.3451297816840322e-07 -9.0705415708779635e-08 0.0000000000000000e+00  -4.1570452576466921e-07 -8.0580575696628687e-08 0.0000000000000000e+00  -3.9767820139148241e-07 -6.8446989079971945e-08 0.0000000000000000e+00  -3.8190472962215507e-07 -5.5200837393994520e-08 0.0000000000000000e+00  -3.6957449761359787e-07 -4.1425423247419615e-08 0.0000000000000000e+00  -3.6149248571732696e-07 -2.7472809038451245e-08 0.0000000000000000e+00  -3.5809205998215191e-07 -1.3542265813144649e-08 0.0000000000000000e+00  -3.5964487239078972e-07 2.5546287640063608e-10 0.0000000000000000e+00  -3.6629228041306212e-07 1.3830581900525671e-08 0.0000000000000000e+00  -3.7806872160908092e-07 2.7038810963254391e-08 0.0000000000000000e+00  -3.9488177898340328e-07 3.9608702784315589e-08 0.0000000000000000e+00  -4.1644969926037578e-07 5.1089617944684977e-08 0.0000000000000000e+00  -4.4221578117831160e-07 6.0842345735924000e-08 0.0000000000000000e+00  -4.7126710483749757e-07 6.8089071894121191e-08 0.0000000000000000e+00  -5.0229006159955320e-07 7.2022138624556493e-08 0.0000000000000000e+00  -5.3359894529457450e-07 7.1948375313571531e-08 0.0000000000000000e+00  -5.6323669499073725e-07 6.7428622110564845e-08 0.0000000000000000e+00  -5.8915664945224866e-07 5.8369086588763396e-08 0.0000000000000000e+00  -6.0939688600068999e-07 4.5039995093519816e-08 0.0000000000000000e+00  -6.2230185877705047e-07 2.8014932671028005e-08 0.0000000000000000e+00  -6.2654676458807684e-07 8.0690227020303909e-09 0.0000000000000000e+00  -6.2137430108408310e-07 -1.3964416600000958e-08 0.0000000000000000e+00  -6.0618039325536523e-07 -3.7261038853954878e-08 0.0000000000000000e+00  -5.8126020972336298e-07 -6.1170425571878613e-08 0.0000000000000000e+00  -5.4607047527370779e-07 -8.5026343155049325e-08 0.0000000000000000e+00  -5.0257345795012906e-07 -1.0861200865714291e-07 0.0000000000000000e+00  -4.4819404764312867e-07 -1.3104468763289518e-07 0.0000000000000000e+00  -3.9016586354126494e-07 -1.5306024467275529e-07 0.0000000000000000e+00  -3.1616756572554403e-07 -1.7177998907869784e-07 0.0000000000000000e+00  -2.5438781635396518e-07 -1.9176503412025169e-07 0.0000000000000000e+00  -1.5129618190998089e-07 -2.0082225170778656e-07 0.0000000000000000e+00  -1.1992809359303980e-07 -2.2117991646803114e-07 0.0000000000000000e+00  6.2102501192690969e-08 -2.0026316956492537e-07 0.0000000000000000e+00  -5.9214606067751245e-08 -2.3951578503633795e-07 0.0000000000000000e+00  4.0652678787306022e-07 -1.1781209055849392e-07 0.0000000000000000e+00  -3.4481487369420292e-07 -2.7820951417001395e-07 0.0000000000000000e+00  1.0918930689366513e-06 1.7527145249904088e-07 0.0000000000000000e+00  -2.5016977821900601e-06 -5.8525594849174128e-07 0.0000000000000000e+00  2.5436426108436100e-06 1.4415372998254211e-06 0.0000000000000000e+00  0.0000000000000000e+00 0.0000000000000000e+00 0.0000000000000000e+00  0.0000000000000000e+00 0.0000000000000000e+00 0.0000000000000000e+00  -2.2024853299074905e-06 1.2163625044933722e-06 0.0000000000000000e+00  1.8261696893656171e-06 -6.3555509844712854e-08 0.0000000000000000e+00  -4.1905049311752908e-07 3.1757244866022871e-07 0.0000000000000000e+00  -4.0947459029388245e-08 4.0010266104823898e-08 0.0000000000000000e+00  -1.9466182139674860e-07 -4.1342068402215793e-09 0.0000000000000000e+00  -2.6392011455264388e-07 -6.6167973514771894e-08 0.0000000000000000e+00  -2.8845515532499519e-07 -9.1835596335849139e-08 0.0000000000000000e+00  -3.2071491325276665e-07 -1.0147409691582022e-07 0.0000000000000000e+00  -3.3565763572579270e-07 -1.0007986107125631e-07 0.0000000000000000e+00  -3.4404863135184237e-07 -9.1695858952940829e-08 0.0000000000000000e+00  -3.4851438574062106e-07 -7.9021498956813867e-08 0.0000000000000000e+00  -3.5057435851663422e-07 -6.3753864250815958e-08 0.0000000000000000e+00  -3.5231990268981419e-07 -4.7019286613392757e-08 0.0000000000000000e+00  -3.5488812720242426e-07 -2.9530743480434053e-08 0.0000000000000000e+00  -3.5914523683360871e-07 -1.1720643254601380e-08 0.0000000000000000e+00  -3.6571264132237297e-07 6.1578177866213308e-09 0.0000000000000000e+00  -3.7501717002328444e-07 2.3926388284038725e-08 0.0000000000000000e+00  -3.8735433675515808e-07 4.1363342953935845e-08 0.0000000000000000e+00  -4.0287626339476507e-07 5.8083428350543396e-08 0.0000000000000000e+00  -4.2153650507952493e-07 7.3441962482668025e-08 0.0000000000000000e+00  -4.4299599932074965e-07 8.6502799712074211e-08 0.0000000000000000e+00  -4.6652499968873911e-07 9.6103920674757258e-08 0.0000000000000000e+00  -4.9094770550294865e-07 1.0102586179740419e-07 0.0000000000000000e+00  -5.1468080507245145e-07 1.0022600692126976e-07 0.0000000000000000e+00  -5.3587066467330175e-07 9.3067618448670878e-08 0.0000000000000000e+00  -5.5263076997583937e-07 7.9466442854736639e-08 0.0000000000000000e+00  -5.6326666613033536e-07 5.9910817389489940e-08 0.0000000000000000e+00  -5.6652779253568822e-07 3.5351338764452958e-08 0.0000000000000000e+00  -5.6161814446727633e-07 7.0209908172550215e-09 0.0000000000000000e+00  -5.4840648151280562e-07 -2.3788484817905029e-08 0.0000000000000000e+00  -5.2693924247866301e-07 -5.5849918398627146e-08 0.0000000000000000e+00  -4.9818267207211785e-07 -8.8196285118979733e-08 0.0000000000000000e+00  -4.6217663728972990e-07 -1.1992108994038491e-07 0.0000000000000000e+00  -4.2152005258898013e-07 -1.5063133687064237e-07 0.0000000000000000e+00  -3.7406152490484657e-07 -1.7927830426233271e-07 0.0000000000000000e+00  -3.2775639842414558e-07 -2.0642058761730038e-07 0.0000000000000000e+00  -2.7046106823896791e-07 -2.2896155392025474e-07 0.0000000000000000e+00  -2.3142606400186598e-07 -2.5104550501023508e-07 0.0000000000000000e+00  -1.5687330003665041e-07 -2.6038453016900216e-07 0.0000000000000000e+00  -1.6109000647491969e-07 -2.7780414758745009e-07 0.0000000000000000e+00  -2.1969397937087542e-08 -2.5310201117005764e-07 0.0000000000000000e+00  -1.8999788738885683e-07 -2.8143532928105427e-07 0.0000000000000000e+00  2.1328452426687821e-07 -1.6103388160340105e-07 0.0000000000000000e+00  -5.7535459546327140e-07 -2.9795879605519762e-07 0.0000000000000000e+00  7.7245989037652340e-07 1.0688286201678594e-07 0.0000000000000000e+00  -2.7440416333157384e-06 -5.3923599159894914e-07 0.0000000000000000e+00  2.1469519561191768e-06 1.2283541736770913e-06 0.0000000000000000e+00  0.0000000000000000e+00 0.0000000000000000e+00 0.0000000000000000e+00  0.0000000000000000e+00 0.0000000000000000e+00 0.0000000000000000e+00  -2.4529897640509348e-06 1.2612150444107161e-06 0.0000000000000000e+00  2.4529598614553251e-06 -8.2828629900468018e-08 0.0000000000000000e+00  -7.0523544192948617e-07 4.1313600291331101e-07 0.0000000000000000e+00  2.5736896060827079e-07 6.8889729429091472e-08 0.0000000000000000e+00  -1.7800971662046314e-07 7.9950406975991677e-08 0.0000000000000000e+00  -1.3266101713325992e-07 -1.6763730770285347e-08 0.0000000000000000e+00  -1.8932075680718393e-07 -4.8771991636529446e-08 0.0000000000000000e+00  -2.3179469374305210e-07 -7.3315220098284167e-08 0.0000000000000000e+00  -2.5749971056279884e-07 -8.1266506717929671e-08 0.0000000000000000e+00  -2.8072706395346892e-07 -7.9673303428293636e-08 0.0000000000000000e+00  -2.9703743603823574e-07 -7.1190509122634156e-08 0.0000000000000000e+00  -3.0971523462848899e-07 -5.8105304893058594e-08 0.0000000000000000e+00  -3.2028191200229351e-07 -4.2075221406315841e-08 0.0000000000000000e+00  -3.2976588546916522e-07 -2.4211825290974137e-08 0.0000000000000000e+00  -3.3915238460870427e-07 -5.2629962615885226e-09 0.0000000000000000e+00  -3.4909963245347233e-07 1.4305153192560772e-08 0.0000000000000000e+00  -3.6012987299670610e-07 3.4174806607316526e-08 0.0000000000000000e+00  -3.7266266813715432e-07 5.4021807038326190e-08 0.0000000000000000e+00  -3.8701084149982822e-07 7.3339754819781860e-08 0.0000000000000000e+00  -4.0332105058756165e-07 9.1281066569707329e-08 0.0000000000000000e+00  -4.2144722092262887e-07 1.0658249684072641e-07 0.0000000000000000e+00  -4.4080754259775583e-07 1.1763980255911116e-07 0.0000000000000000e+00  -4.6029302998621706e-07 1.2275270306946519e-07 0.0000000000000000e+00  -4.7830921112727241e-07 1.2048452056014222e-07 0.0000000000000000e+00  -4.9296746074779965e-07 1.1001521337859326e-07 0.0000000000000000e+00  -5.0241467567317830e-07 9.1355589112099919e-08 0.0000000000000000e+00  -5.0514111819074590e-07 6.5350389090735990e-08 0.0000000000000000e+00  -5.0027915863103901e-07 3.3478975963761307e-08 0.0000000000000000e+00  -4.8758065162160202e-07 -2.4443406801335872e-09 0.0000000000000000e+00  -4.6758134213643192e-07 -4.0599076870629018e-08 0.0000000000000000e+00  -4.4098098929764172e-07 -7.9344166881775584e-08 0.0000000000000000e+00  -4.0940227891396089e-07 -1.1742560050275306e-07 0.0000000000000000e+00  -3.7332452889928283e-07 -1.5375497874987397e-07 0.0000000000000000e+00  -3.3589143899058836e-07 -1.8780907205403629e-07 0.0000000000000000e+00  -2.9495388844934351e-07 -2.1844060121108948e-07 0.0000000000000000e+00  -2.5917358288860261e-07 -2.4602857786264531e-07 0.0000000000000000e+00  -2.1546653047043259e-07 -2.6739469412080595e-07 0.0000000000000000e+00  -1.9486831741832176e-07 -2.8620098169044215e-07 0.0000000000000000e+00  -1.3988625305549469e-07 -2.9059453881309907e-07 0.0000000000000000e+00  -1.7041873905270691e-07 -2.9987481647409969e-07 0.0000000000000000e+00  -5.2109278705042852e-08 -2.6780841811236490e-07 0.0000000000000000e+00  -2.5287835825787203e-07 -2.8302352695812458e-07 0.0000000000000000e+00  1.4166935768485504e-07 -1.6439497033263744e-07 0.0000000000000000e+00  -6.7914128220439701e-07 -2.8210680475069103e-07 0.0000000000000000e+00  6.9586017868742859e-07 7.6891370224639148e-08 0.0000000000000000e+00  -2.8131042031277570e-06 -4.9141882591966874e-07 0.0000000000000000e+00  2.1265783871344870e-06 1.0658923951749590e-06 0.0000000000000000e+00  0.0000000000000000e+00 0.0000000000000000e+00 0.0000000000000000e+00  0.0000000000000000e+00 0.0000000000000000e+00 0.0000000000000000e+00  -2.3994897415648223e-06 1.1538967283464897e-06 0.0000000000000000e+00  2.7051886184884280e-06 -6.1637164898020516e-08 0.0000000000000000e+00  -8.3396000485384876e-07 4.2265771542206839e-07 0.0000000000000000e+00  4.8905298223921695e-07 9.2952849085129690e-08 0.0000000000000000e+00  -2.0069450486716349e-07 1.4521647489350681e-07 0.0000000000000000e+00  9.2853763625779762e-09 2.8696450297936307e-08 0.0000000000000000e+00  -1.1114041904965997e-07 1.4667156034349406e-09 0.0000000000000000e+00  -1.3316510053128859e-07 -3.6229601864713876e-08 0.0000000000000000e+00  -1.7005378429255867e-07 -5.0576176628081560e-08 0.0000000000000000e+00  -2.0192909937423718e-07 -5.6071545908922949e-08 0.0000000000000000e+00  -2.2658210740362825e-07 -5.2415429808937585e-08 0.0000000000000000e+00  -2.4816192925498495e-07 -4.2770290006607709e-08 0.0000000000000000e+00  -2.6636375259825213e-07 -2.8909037734178952e-08 0.0000000000000000e+00  -2.8241917114029144e-07 -1.2244526656025166e-08 0.0000000000000000e+00  -2.9711507376614085e-07 6.2279019567279378e-09 0.0000000000000000e+00  -3.1103755505107083e-07 2.5876733224474880e-08 0.0000000000000000e+00  -3.2473227467031203e-07 4.6288613846711198e-08 0.0000000000000000e+00  -3.3868245656362052e-07 6.7098548326792722e-08 0.0000000000000000e+00  -3.5334372850399634e-07 8.7746880374547857e-08 0.0000000000000000e+00  -3.6906399413671104e-07 1.0723043709911259e-07 0.0000000000000000e+00  -3.8590526167212764e-07 1.2395030161273220e-07 0.0000000000000000e+00  -4.0341997551240693e-07 1.3578147322646819e-07 0.0000000000000000e+00  -4.2048897873795302e-07 1.4042437068770664e-07 0.0000000000000000e+00  -4.3535993602418415e-07 1.3595684831730451e-07 0.0000000000000000e+00  -4.4592850077205431e-07 1.2137747441421453e-07 0.0000000000000000e+00  -4.5022291693295725e-07 9.6910332323478533e-08 0.0000000000000000e+00  -4.4684932953414709e-07 6.3956842382780480e-08 0.0000000000000000e+00  -4.3534905778860298e-07 2.4737048942741384e-08 0.0000000000000000e+00  -4.1611310995573310e-07 -1.8198005348556027e-08 0.0000000000000000e+00  -3.9044040180583651e-07 -6.2438803159235465e-08 0.0000000000000000e+00  -3.5974612065189274e-07 -1.0596487357459515e-07 0.0000000000000000e+00  -3.2628949715041491e-07 -1.4734102545416343e-07 0.0000000000000000e+00  -2.9092537776229591e-07 -1.8543746403129997e-07 0.0000000000000000e+00  -2.5715639616005324e-07 -2.197563561