<?xml version="1.0"?>
<VTKFile type="UnstructuredGrid"  version="0.1"  >
<UnstructuredGrid>
<Piece  NumberOfPoints="1617" NumberOfCells="3072">
<Points>
<DataArray  type="Float64"  NumberOfComponents="3"  format="ascii">0 0 0  0.03125 0 0  0.0625 0 0  0.09375 0 0  0.125 0 0  0.15625 0 0  0.1875 0 0  0.21875 0 0  0.25 0 0  0.28125 0 0  0.3125 0 0  0.34375 0 0  0.375 0 0  0.40625 0 0  0.4375 0 0  0.46875 0 0  0.5 0 0  0.53125 0 0  0.5625 0 0  0.59375 0 0  0.625 0 0  0.65625 0 0  0.6875 0 0  0.71875 0 0  0.75 0 0  0.78125 0 0  0.8125 0 0  0.84375 0 0  0.875 0 0  0.90625 0 0  0.9375 0 0  0.96875 0 0  1 0 0  1.03125 0 0  1.0625 0 0  1.09375 0 0  1.125 0 0  1.15625 0 0  1.1875 0 0  1.21875 0 0  1.25 0 0  1.28125 0 0  1.3125 0 0  1.34375 0 0  1.375 0 0  1.40625 0 0  1.4375 0 0  1.46875 0 0  1.5 0 0  0 0.03125 0  0.03125 0.03125 0  0.0625 0.03125 0  0.09375 0.03125 0  0.125 0.03125 0  0.15625 0.03125 0  0.1875 0.03125 0  0.21875 0.03125 0  0.25 0.03125 0  0.28125 0.03125 0  0.3125 0.03125 0  0.34375 0.03125 0  0.375 0.03125 0  0.40625 0.03125 0  0.4375 0.03125 0  0.46875 0.03125 0  0.5 0.03125 0  0.53125 0.03125 0  0.5625 0.03125 0  0.59375 0.03125 0  0.625 0.03125 0  0.65625 0.03125 0  0.6875 0.03125 0  0.71875 0.03125 0  0.75 0.03125 0  0.78125 0.03125 0  0.8125 0.03125 0  0.84375 0.03125 0  0.875 0.03125 0  0.90625 0.03125 0  0.9375 0.03125 0  0.96875 0.03125 0  1 0.03125 0  1.03125 0.03125 0  1.0625 0.03125 0  1.09375 0.03125 0  1.125 0.03125 0  1.15625 0.03125 0  1.1875 0.03125 0  1.21875 0.03125 0  1.25 0.03125 0  1.28125 0.03125 0  1.3125 0.03125 0  1.34375 0.03125 0  1.375 0.03125 0  1.40625 0.03125 0  1.4375 0.03125 0  1.46875 0.03125 0  1.5 0.03125 0  0 0.0625 0  0.03125 0.0625 0  0.0625 0.0625 0  0.09375 0.0625 0  0.125 0.0625 0  0.15625 0.0625 0  0.1875 0.0625 0  0.21875 0.0625 0  0.25 0.0625 0  0.28125 0.0625 0  0.3125 0.0625 0  0.34375 0.0625 0  0.375 0.0625 0  0.40625 0.0625 0  0.4375 0.0625 0  0.46875 0.0625 0  0.5 0.0625 0  0.53125 0.0625 0  0.5625 0.0625 0  0.59375 0.0625 0  0.625 0.0625 0  0.65625 0.0625 0  0.6875 0.0625 0  0.71875 0.0625 0  0.75 0.0625 0  0.78125 0.0625 0  0.8125 0.0625 0  0.84375 0.0625 0  0.875 0.0625 0  0.90625 0.0625 0  0.9375 0.0625 0  0.96875 0.0625 0  1 0.0625 0  1.03125 0.0625 0  1.0625 0.0625 0  1.09375 0.0625 0  1.125 0.0625 0  1.15625 0.0625 0  1.1875 0.0625 0  1.21875 0.0625 0  1.25 0.0625 0  1.28125 0.0625 0  1.3125 0.0625 0  1.34375 0.0625 0  1.375 0.0625 0  1.40625 0.0625 0  1.4375 0.0625 0  1.46875 0.0625 0  1.5 0.0625 0  0 0.09375 0  0.03125 0.09375 0  0.0625 0.09375 0  0.09375 0.09375 0  0.125 0.09375 0  0.15625 0.09375 0  0.1875 0.09375 0  0.21875 0.09375 0  0.25 0.09375 0  0.28125 0.09375 0  0.3125 0.09375 0  0.34375 0.09375 0  0.375 0.09375 0  0.40625 0.09375 0  0.4375 0.09375 0  0.46875 0.09375 0  0.5 0.09375 0  0.53125 0.09375 0  0.5625 0.09375 0  0.59375 0.09375 0  0.625 0.09375 0  0.65625 0.09375 0  0.6875 0.09375 0  0.71875 0.09375 0  0.75 0.09375 0  0.78125 0.09375 0  0.8125 0.09375 0  0.84375 0.09375 0  0.875 0.09375 0  0.90625 0.09375 0  0.9375 0.09375 0  0.96875 0.09375 0  1 0.09375 0  1.03125 0.09375 0  1.0625 0.09375 0  1.09375 0.09375 0  1.125 0.09375 0  1.15625 0.09375 0  1.1875 0.09375 0  1.21875 0.09375 0  1.25 0.09375 0  1.28125 0.09375 0  1.3125 0.09375 0  1.34375 0.09375 0  1.375 0.09375 0  1.40625 0.09375 0  1.4375 0.09375 0  1.46875 0.09375 0  1.5 0.09375 0  0 0.125 0  0.03125 0.125 0  0.0625 0.125 0  0.09375 0.125 0  0.125 0.125 0  0.15625 0.125 0  0.1875 0.125 0  0.21875 0.125 0  0.25 0.125 0  0.28125 0.125 0  0.3125 0.125 0  0.34375 0.125 0  0.375 0.125 0  0.40625 0.125 0  0.4375 0.125 0  0.46875 0.125 0  0.5 0.125 0  0.53125 0.125 0  0.5625 0.125 0  0.59375 0.125 0  0.625 0.125 0  0.65625 0.125 0  0.6875 0.125 0  0.71875 0.125 0  0.75 0.125 0  0.78125 0.125 0  0.8125 0.125 0  0.84375 0.125 0  0.875 0.125 0  0.90625 0.125 0  0.9375 0.125 0  0.96875 0.125 0  1 0.125 0  1.03125 0.125 0  1.0625 0.125 0  1.09375 0.125 0  1.125 0.125 0  1.15625 0.125 0  1.1875 0.125 0  1.21875 0.125 0  1.25 0.125 0  1.28125 0.125 0  1.3125 0.125 0  1.34375 0.125 0  1.375 0.125 0  1.40625 0.125 0  1.4375 0.125 0  1.46875 0.125 0  1.5 0.125 0  0 0.15625 0  0.03125 0.15625 0  0.0625 0.15625 0  0.09375 0.15625 0  0.125 0.15625 0  0.15625 0.15625 0  0.1875 0.15625 0  0.21875 0.15625 0  0.25 0.15625 0  0.28125 0.15625 0  0.3125 0.15625 0  0.34375 0.15625 0  0.375 0.15625 0  0.40625 0.15625 0  0.4375 0.15625 0  0.46875 0.15625 0  0.5 0.15625 0  0.53125 0.15625 0  0.5625 0.15625 0  0.59375 0.15625 0  0.625 0.15625 0  0.65625 0.15625 0  0.6875 0.15625 0  0.71875 0.15625 0  0.75 0.15625 0  0.78125 0.15625 0  0.8125 0.15625 0  0.84375 0.15625 0  0.875 0.15625 0  0.90625 0.15625 0  0.9375 0.15625 0  0.96875 0.15625 0  1 0.15625 0  1.03125 0.15625 0  1.0625 0.15625 0  1.09375 0.15625 0  1.125 0.15625 0  1.15625 0.15625 0  1.1875 0.15625 0  1.21875 0.15625 0  1.25 0.15625 0  1.28125 0.15625 0  1.3125 0.15625 0  1.34375 0.15625 0  1.375 0.15625 0  1.40625 0.15625 0  1.4375 0.15625 0  1.46875 0.15625 0  1.5 0.15625 0  0 0.1875 0  0.03125 0.1875 0  0.0625 0.1875 0  0.09375 0.1875 0  0.125 0.1875 0  0.15625 0.1875 0  0.1875 0.1875 0  0.21875 0.1875 0  0.25 0.1875 0  0.28125 0.1875 0  0.3125 0.1875 0  0.34375 0.1875 0  0.375 0.1875 0  0.40625 0.1875 0  0.4375 0.1875 0  0.46875 0.1875 0  0.5 0.1875 0  0.53125 0.1875 0  0.5625 0.1875 0  0.59375 0.1875 0  0.625 0.1875 0  0.65625 0.1875 0  0.6875 0.1875 0  0.71875 0.1875 0  0.75 0.1875 0  0.78125 0.1875 0  0.8125 0.1875 0  0.84375 0.1875 0  0.875 0.1875 0  0.90625 0.1875 0  0.9375 0.1875 0  0.96875 0.1875 0  1 0.1875 0  1.03125 0.1875 0  1.0625 0.1875 0  1.09375 0.1875 0  1.125 0.1875 0  1.15625 0.1875 0  1.1875 0.1875 0  1.21875 0.1875 0  1.25 0.1875 0  1.28125 0.1875 0  1.3125 0.1875 0  1.34375 0.1875 0  1.375 0.1875 0  1.40625 0.1875 0  1.4375 0.1875 0  1.46875 0.1875 0  1.5 0.1875 0  0 0.21875 0  0.03125 0.21875 0  0.0625 0.21875 0  0.09375 0.21875 0  0.125 0.21875 0  0.15625 0.21875 0  0.1875 0.21875 0  0.21875 0.21875 0  0.25 0.21875 0  0.28125 0.21875 0  0.3125 0.21875 0  0.34375 0.21875 0  0.375 0.21875 0  0.40625 0.21875 0  0.4375 0.21875 0  0.46875 0.21875 0  0.5 0.21875 0  0.53125 0.21875 0  0.5625 0.21875 0  0.59375 0.21875 0  0.625 0.21875 0  0.65625 0.21875 0  0.6875 0.21875 0  0.71875 0.21875 0  0.75 0.21875 0  0.78125 0.21875 0  0.8125 0.21875 0  0.84375 0.21875 0  0.875 0.21875 0  0.90625 0.21875 0  0.9375 0.21875 0  0.96875 0.21875 0  1 0.21875 0  1.03125 0.21875 0  1.0625 0.21875 0  1.09375 0.21875 0  1.125 0.21875 0  1.15625 0.21875 0  1.1875 0.21875 0  1.21875 0.21875 0  1.25 0.21875 0  1.28125 0.21875 0  1.3125 0.21875 0  1.34375 0.21875 0  1.375 0.21875 0  1.40625 0.21875 0  1.4375 0.21875 0  1.46875 0.21875 0  1.5 0.21875 0  0 0.25 0  0.03125 0.25 0  0.0625 0.25 0  0.09375 0.25 0  0.125 0.25 0  0.15625 0.25 0  0.1875 0.25 0  0.21875 0.25 0  0.25 0.25 0  0.28125 0.25 0  0.3125 0.25 0  0.34375 0.25 0  0.375 0.25 0  0.40625 0.25 0  0.4375 0.25 0  0.46875 0.25 0  0.5 0.25 0  0.53125 0.25 0  0.5625 0.25 0  0.59375 0.25 0  0.625 0.25 0  0.65625 0.25 0  0.6875 0.25 0  0.71875 0.25 0  0.75 0.25 0  0.78125 0.25 0  0.8125 0.25 0  0.84375 0.25 0  0.875 0.25 0  0.90625 0.25 0  0.9375 0.25 0  0.96875 0.25 0  1 0.25 0  1.03125 0.25 0  1.0625 0.25 0  1.09375 0.25 0  1.125 0.25 0  1.15625 0.25 0  1.1875 0.25 0  1.21875 0.25 0  1.25 0.25 0  1.28125 0.25 0  1.3125 0.25 0  1.34375 0.25 0  1.375 0.25 0  1.40625 0.25 0  1.4375 0.25 0  1.46875 0.25 0  1.5 0.25 0  0 0.28125 0  0.03125 0.28125 0  0.0625 0.28125 0  0.09375 0.28125 0  0.125 0.28125 0  0.15625 0.28125 0  0.1875 0.28125 0  0.21875 0.28125 0  0.25 0.28125 0  0.28125 0.28125 0  0.3125 0.28125 0  0.34375 0.28125 0  0.375 0.28125 0  0.40625 0.28125 0  0.4375 0.28125 0  0.46875 0.28125 0  0.5 0.28125 0  0.53125 0.28125 0  0.5625 0.28125 0  0.59375 0.28125 0  0.625 0.28125 0  0.65625 0.28125 0  0.6875 0.28125 0  0.71875 0.28125 0  0.75 0.28125 0  0.78125 0.28125 0  0.8125 0.28125 0  0.84375 0.28125 0  0.875 0.28125 0  0.90625 0.28125 0  0.9375 0.28125 0  0.96875 0.28125 0  1 0.28125 0  1.03125 0.28125 0  1.0625 0.28125 0  1.09375 0.28125 0  1.125 0.28125 0  1.15625 0.28125 0  1.1875 0.28125 0  1.21875 0.28125 0  1.25 0.28125 0  1.28125 0.28125 0  1.3125 0.28125 0  1.34375 0.28125 0  1.375 0.28125 0  1.40625 0.28125 0  1.4375 0.28125 0  1.46875 0.28125 0  1.5 0.28125 0  0 0.3125 0  0.03125 0.3125 0  0.0625 0.3125 0  0.09375 0.3125 0  0.125 0.3125 0  0.15625 0.3125 0  0.1875 0.3125 0  0.21875 0.3125 0  0.25 0.3125 0  0.28125 0.3125 0  0.3125 0.3125 0  0.34375 0.3125 0  0.375 0.3125 0  0.40625 0.3125 0  0.4375 0.3125 0  0.46875 0.3125 0  0.5 0.3125 0  0.53125 0.3125 0  0.5625 0.3125 0  0.59375 0.3125 0  0.625 0.3125 0  0.65625 0.3125 0  0.6875 0.3125 0  0.71875 0.3125 0  0.75 0.3125 0  0.78125 0.3125 0  0.8125 0.3125 0  0.84375 0.3125 0  0.875 0.3125 0  0.90625 0.3125 0  0.9375 0.3125 0  0.96875 0.3125 0  1 0.3125 0  1.03125 0.3125 0  1.0625 0.3125 0  1.09375 0.3125 0  1.125 0.3125 0  1.15625 0.3125 0  1.1875 0.3125 0  1.21875 0.3125 0  1.25 0.3125 0  1.28125 0.3125 0  1.3125 0.3125 0  1.34375 0.3125 0  1.375 0.3125 0  1.40625 0.3125 0  1.4375 0.3125 0  1.46875 0.3125 0  1.5 0.3125 0  0 0.34375 0  0.03125 0.34375 0  0.0625 0.34375 0  0.09375 0.34375 0  0.125 0.34375 0  0.15625 0.34375 0  0.1875 0.34375 0  0.21875 0.34375 0  0.25 0.34375 0  0.28125 0.34375 0  0.3125 0.34375 0  0.34375 0.34375 0  0.375 0.34375 0  0.40625 0.34375 0  0.4375 0.34375 0  0.46875 0.34375 0  0.5 0.34375 0  0.53125 0.34375 0  0.5625 0.34375 0  0.59375 0.34375 0  0.625 0.34375 0  0.65625 0.34375 0  0.6875 0.34375 0  0.71875 0.34375 0  0.75 0.34375 0  0.78125 0.34375 0  0.8125 0.34375 0  0.84375 0.34375 0  0.875 0.34375 0  0.90625 0.34375 0  0.9375 0.34375 0  0.96875 0.34375 0  1 0.34375 0  1.03125 0.34375 0  1.0625 0.34375 0  1.09375 0.34375 0  1.125 0.34375 0  1.15625 0.34375 0  1.1875 0.34375 0  1.21875 0.34375 0  1.25 0.34375 0  1.28125 0.34375 0  1.3125 0.34375 0  1.34375 0.34375 0  1.375 0.34375 0  1
[...]
<PointData  Vectors="f_17"> 
<DataArray  type="Float64"  Name="f_17"  NumberOfComponents="3" format="ascii">0.0000000000000000e+00 0.0000000000000000e+00 0.0000000000000000e+00  0.0000000000000000e+00 0.0000000000000000e+00 0.0000000000000000e+00  0.0000000000000000e+00 0.0000000000000000e+00 0.0000000000000000e+00  0.0000000000000000e+00 0.0000000000000000e+00 0.0000000000000000e+00  0.0000000000000000e+00 0.0000000000000000e+00 0.0000000000000000e+00  0.0000000000000000e+00 0.0000000000000000e+00 0.0000000000000000e+00  0.0000000000000000e+00 0.0000000000000000e+00 0.0000000000000000e+00  0.0000000000000000e+00 0.0000000000000000e+00 0.0000000000000000e+00  0.0000000000000000e+00 0.0000000000000000e+00 0.0000000000000000e+00  0.0000000000000000e+00 0.0000000000000000e+00 0.0000000000000000e+00  0.0000000000000000e+00 0.0000000000000000e+00 0.0000000000000000e+00  0.0000000000000000e+00 0.0000000000000000e+00 0.0000000000000000e+00  0.0000000000000000e+00 0.0000000000000000e+00 0.0000000000000000e+00  0.0000000000000000e+00 0.0000000000000000e+00 0.0000000000000000e+00  0.0000000000000000e+00 0.0000000000000000e+00 0.0000000000000000e+00  0.0000000000000000e+00 0.0000000000000000e+00 0.0000000000000000e+00  0.0000000000000000e+00 0.0000000000000000e+00 0.0000000000000000e+00  0.0000000000000000e+00 0.0000000000000000e+00 0.0000000000000000e+00  0.0000000000000000e+00 0.0000000000000000e+00 0.0000000000000000e+00  0.0000000000000000e+00 0.0000000000000000e+00 0.0000000000000000e+00  0.0000000000000000e+00 0.0000000000000000e+00 0.0000000000000000e+00  0.0000000000000000e+00 0.0000000000000000e+00 0.0000000000000000e+00  0.0000000000000000e+00 0.0000000000000000e+00 0.0000000000000000e+00  0.0000000000000000e+00 0.0000000000000000e+00 0.0000000000000000e+00  0.0000000000000000e+00 0.0000000000000000e+00 0.0000000000000000e+00  0.0000000000000000e+00 0.0000000000000000e+00 0.0000000000000000e+00  0.0000000000000000e+00 0.0000000000000000e+00 0.0000000000000000e+00  0.0000000000000000e+00 0.0000000000000000e+00 0.0000000000000000e+00  0.0000000000000000e+00 0.0000000000000000e+00 0.0000000000000000e+00  0.0000000000000000e+00 0.0000000000000000e+00 0.0000000000000000e+00  0.0000000000000000e+00 0.0000000000000000e+00 0.0000000000000000e+00  0.0000000000000000e+00 0.0000000000000000e+00 0.0000000000000000e+00  0.0000000000000000e+00 0.0000000000000000e+00 0.0000000000000000e+00  0.0000000000000000e+00 0.0000000000000000e+00 0.0000000000000000e+00  0.0000000000000000e+00 0.0000000000000000e+00 0.0000000000000000e+00  0.0000000000000000e+00 0.0000000000000000e+00 0.0000000000000000e+00  0.0000000000000000e+00 0.0000000000000000e+00 0.0000000000000000e+00  0.0000000000000000e+00 0.0000000000000000e+00 0.0000000000000000e+00  0.0000000000000000e+00 0.0000000000000000e+00 0.0000000000000000e+00  0.0000000000000000e+00 0.0000000000000000e+00 0.0000000000000000e+00  0.0000000000000000e+00 0.0000000000000000e+00 0.0000000000000000e+00  0.0000000000000000e+00 0.0000000000000000e+00 0.0000000000000000e+00  0.0000000000000000e+00 0.0000000000000000e+00 0.0000000000000000e+00  0.0000000000000000e+00 0.0000000000000000e+00 0.0000000000000000e+00  0.0000000000000000e+00 0.0000000000000000e+00 0.0000000000000000e+00  0.0000000000000000e+00 0.0000000000000000e+00 0.0000000000000000e+00  0.0000000000000000e+00 0.0000000000000000e+00 0.0000000000000000e+00  0.0000000000000000e+00 0.0000000000000000e+00 0.0000000000000000e+00  0.0000000000000000e+00 0.0000000000000000e+00 0.0000000000000000e+00  0.0000000000000000e+00 0.0000000000000000e+00 0.0000000000000000e+00  5.7509196263433092e-09 1.2036185581425177e-08 0.0000000000000000e+00  -1.3353152805778611e-07 1.1124115327964256e-07 0.0000000000000000e+00  -7.4415239060977454e-08 -1.2563012879797497e-08 0.0000000000000000e+00  -2.7651250241973564e-07 -4.7665124910387998e-08 0.0000000000000000e+00  -2.6873682399934930e-07 -7.4310810133479312e-08 0.0000000000000000e+00  -2.6306297874558649e-07 -7.8930024672365092e-08 0.0000000000000000e+00  -2.6067352935705949e-07 -7.1670069240618282e-08 0.0000000000000000e+00  -2.4730847388011258e-07 -6.2153080276833104e-08 0.0000000000000000e+00  -2.3484984117353105e-07 -5.1676960604917712e-08 0.0000000000000000e+00  -2.2347627814249488e-07 -4.1273429039375838e-08 0.0000000000000000e+00  -2.1452104883282739e-07 -3.1301923022624750e-08 0.0000000000000000e+00  -2.0929668506413341e-07 -2.1823004450505982e-08 0.0000000000000000e+00  -2.0832329355045925e-07 -1.2862821918251684e-08 0.0000000000000000e+00  -2.1200451767615651e-07 -4.3932547593253341e-09 0.0000000000000000e+00  -2.2057806454384364e-07 3.6424552713009740e-09 0.0000000000000000e+00  -2.3417790557028565e-07 1.1305915063914188e-08 0.0000000000000000e+00  -2.5287878585970997e-07 1.8636139642463774e-08 0.0000000000000000e+00  -2.7668561918962030e-07 2.5616662772825709e-08 0.0000000000000000e+00  -3.0549665592368061e-07 3.2144680430399594e-08 0.0000000000000000e+00  -3.3903755174632587e-07 3.8012013252373940e-08 0.0000000000000000e+00  -3.7678077730907536e-07 4.2908201903802152e-08 0.0000000000000000e+00  -4.1787469369706587e-07 4.6452254519509208e-08 0.0000000000000000e+00  -4.6110553058567301e-07 4.8250967201561428e-08 0.0000000000000000e+00  -5.0491857624023333e-07 4.7971507344699018e-08 0.0000000000000000e+00  -5.4749565676213946e-07 4.5408998788622130e-08 0.0000000000000000e+00  -5.8689909255106750e-07 4.0528970685793478e-08 0.0000000000000000e+00  -6.2121152932662679e-07 3.3474921123346736e-08 0.0000000000000000e+00  -6.4872743578457700e-07 2.4535801702782113e-08 0.0000000000000000e+00  -6.6798154319233139e-07 1.4098468811278547e-08 0.0000000000000000e+00  -6.7798151795697251e-07 2.5678244321066256e-09 0.0000000000000000e+00  -6.7785106507203988e-07 -9.6480079659121275e-09 0.0000000000000000e+00  -6.6754109409391484e-07 -2.2268292362517937e-08 0.0000000000000000e+00  -6.4621746882399789e-07 -3.4939762455461485e-08 0.0000000000000000e+00  -6.1541430447026599e-07 -4.7720132624819825e-08 0.0000000000000000e+00  -5.7231851729132433e-07 -5.9958615074730905e-08 0.0000000000000000e+00  -5.2351724722753162e-07 -7.2715586722199794e-08 0.0000000000000000e+00  -4.5654061854146015e-07 -8.3298593240263347e-08 0.0000000000000000e+00  -3.9845496522449871e-07 -9.7111407935309116e-08 0.0000000000000000e+00  -2.9559495423925736e-07 -1.0167767046297959e-07 0.0000000000000000e+00  -2.5953498449483513e-07 -1.2243700754785591e-07 0.0000000000000000e+00  -6.6393705519891387e-08 -1.0292657539491662e-07 0.0000000000000000e+00  -1.7050717235728394e-07 -1.5764599314837593e-07 0.0000000000000000e+00  3.3049641888511314e-07 -4.0744322246938421e-08 0.0000000000000000e+00  -3.9016992632283967e-07 -2.4766554632672092e-07 0.0000000000000000e+00  1.1480211997362730e-06 2.2705614698121468e-07 0.0000000000000000e+00  -2.4241051383487336e-06 -7.5607643821016108e-07 0.0000000000000000e+00  2.6837678600961479e-06 1.3712546126995291e-06 0.0000000000000000e+00  0.0000000000000000e+00 0.0000000000000000e+00 0.0000000000000000e+00  0.0000000000000000e+00 0.0000000000000000e+00 0.0000000000000000e+00  -1.2650068956332540e-06 6.7720940513366961e-07 0.0000000000000000e+00  7.6869157745826885e-07 -2.5626293152187063e-08 0.0000000000000000e+00  -1.2189594990029811e-07 1.0856136430856891e-07 0.0000000000000000e+00  -2.9679215719986747e-07 -8.8440450796011297e-09 0.0000000000000000e+00  -3.1471468514870128e-07 -6.0229926793098217e-08 0.0000000000000000e+00  -3.7646023742570276e-07 -8.2095123868104193e-08 0.0000000000000000e+00  -3.7996954548450610e-07 -8.7440619276794012e-08 0.0000000000000000e+00  -3.7407403890048634e-07 -8.3886611538884856e-08 0.0000000000000000e+00  -3.6411312467891236e-07 -7.5082273526347949e-08 0.0000000000000000e+00  -3.5119426966386465e-07 -6.3404219726879726e-08 0.0000000000000000e+00  -3.3989948004148078e-07 -5.0070760481781245e-08 0.0000000000000000e+00  -3.3150648942516719e-07 -3.5870693669017746e-08 0.0000000000000000e+00  -3.2706800030939935e-07 -2.1319063937807308e-08 0.0000000000000000e+00  -3.2728728068313646e-07 -6.7212971455997952e-09 0.0000000000000000e+00  -3.3252134460132004e-07 7.7564900936823229e-09 0.0000000000000000e+00  -3.4298364491489538e-07 2.2026675727638444e-08 0.0000000000000000e+00  -3.5876962633956211e-07 3.6013518565650004e-08 0.0000000000000000e+00  -3.7987472679535908e-07 4.9577415257947596e-08 0.0000000000000000e+00  -4.0616904804741604e-07 6.2441521303853185e-08 0.0000000000000000e+00  -4.3732935197582969e-07 7.4139535375898036e-08 0.0000000000000000e+00  -4.7274819569551412e-07 8.4007493122425411e-08 0.0000000000000000e+00  -5.1144852823311093e-07 9.1236836652815902e-08 0.0000000000000000e+00  -5.5203728359732414e-07 9.4988168054034155e-08 0.0000000000000000e+00  -5.9273513271756589e-07 9.4541660479322536e-08 0.0000000000000000e+00  -6.3148176629617676e-07 8.9442312348001139e-08 0.0000000000000000e+00  -6.6612494621776437e-07 7.9595082777798829e-08 0.0000000000000000e+00  -6.9460336931467510e-07 6.5284230035170255e-08 0.0000000000000000e+00  -7.1517607923490192e-07 4.7110045450168902e-08 0.0000000000000000e+00  -7.2645200215318221e-07 2.5881918499962716e-08 0.0000000000000000e+00  -7.2762832402263290e-07 2.4687749812593765e-09 0.0000000000000000e+00  -7.1807408823483563e-07 -2.2273979190332732e-08 0.0000000000000000e+00  -6.9807143508555580e-07 -4.7673949920860876e-08 0.0000000000000000e+00  -6.6707085941068127e-07 -7.3054875367155534e-08 0.0000000000000000e+00  -6.2702852805826330e-07 -9.8203283412814282e-08 0.0000000000000000e+00  -5.7535418659868095e-07 -1.2225395429791948e-07 0.0000000000000000e+00  -5.1925521435899184e-07 -1.4597569970006821e-07 0.0000000000000000e+00  -4.4635779030936657e-07 -1.6654292202281128e-07 0.0000000000000000e+00  -3.8480123449442010e-07 -1.8859929487283647e-07 0.0000000000000000e+00  -2.8095171146052514e-07 -2.0009099304430860e-07 0.0000000000000000e+00  -2.4785771908969362e-07 -2.2347506621214251e-07 0.0000000000000000e+00  -6.2921511530381603e-08 -2.0657247058491536e-07 0.0000000000000000e+00  -1.8009347633099091e-07 -2.5135084783108886e-07 0.0000000000000000e+00  2.9189264943897522e-07 -1.3731871999035881e-07 0.0000000000000000e+00  -4.5277627349743083e-07 -3.0844329236302779e-07 0.0000000000000000e+00  9.7283837541970843e-07 1.3243146266690772e-07 0.0000000000000000e+00  -2.4492035387922762e-06 -6.2796802841641646e-07 0.0000000000000000e+00  2.6449523530429191e-06 1.4044453522311826e-06 0.0000000000000000e+00  0.0000000000000000e+00 0.0000000000000000e+00 0.0000000000000000e+00  0.0000000000000000e+00 0.0000000000000000e+00 0.0000000000000000e+00  -2.3165760649980805e-06 1.1565709682462255e-06 0.0000000000000000e+00  1.7202244627841745e-06 -1.2163937198421786e-07 0.0000000000000000e+00  -3.8323207060204134e-07 2.7190687331925385e-07 0.0000000000000000e+00  -1.0401352451138573e-08 1.7607762046745497e-08 0.0000000000000000e+00  -1.6051945848085187e-07 -1.1678885959397661e-08 0.0000000000000000e+00  -2.2210137596050330e-07 -6.2505466823683504e-08 0.0000000000000000e+00  -2.4357510458807924e-07 -8.0589123184539512e-08 0.0000000000000000e+00  -2.7558831684663063e-07 -8.4991044986571538e-08 0.0000000000000000e+00  -2.9224859441322356e-07 -7.9900707332767803e-08 0.0000000000000000e+00  -3.0382978271796836e-07 -6.8819934237415714e-08 0.0000000000000000e+00  -3.1260661751427579e-07 -5.4107353194347355e-08 0.0000000000000000e+00  -3.1984124277523202e-07 -3.7252429841726255e-08 0.0000000000000000e+00  -3.2743501158693907e-07 -1.9250875443117118e-08 0.0000000000000000e+00  -3.3638385515496193e-07 -7.2936543708599562e-10 0.0000000000000000e+00  -3.4744802640117089e-07 1.7939112988438658e-08 0.0000000000000000e+00  -3.6116779630798875e-07 3.6542188822334688e-08 0.0000000000000000e+00  -3.7790558476957443e-07 5.4927027790385208e-08 0.0000000000000000e+00  -3.9790256460487726e-07 7.2882299968017287e-08 0.0000000000000000e+00  -4.2126036624225259e-07 9.0017349557223457e-08 0.0000000000000000e+00  -4.4787964934036013e-07 1.0566593674670860e-07 0.0000000000000000e+00  -4.7735998654474254e-07 1.1885583435495202e-07 0.0000000000000000e+00  -5.0889686556416234e-07 1.2837918837675076e-07 0.0000000000000000e+00  -5.4122392393286752e-07 1.3296898066271631e-07 0.0000000000000000e+00  -5.7265292344163731e-07 1.3154332367586941e-07 0.0000000000000000e+00  -6.0121666631825268e-07 1.2344394680035126e-07 0.0000000000000000e+00  -6.2491561114122265e-07 1.0858884266711528e-07 0.0000000000000000e+00  -6.4195323557844529e-07 8.7493014200127335e-08 0.0000000000000000e+00  -6.5099671667186467e-07 6.1153172114515738e-08 0.0000000000000000e+00  -6.5119242646517467e-07 3.0858860523081789e-08 0.0000000000000000e+00  -6.4237603364720651e-07 -2.0416345866892717e-09 0.0000000000000000e+00  -6.2458068745542066e-07 -3.6274084484374810e-08 0.0000000000000000e+00  -5.9877164576561820e-07 -7.0840827588502914e-08 0.0000000000000000e+00  -5.6499066231985520e-07 -1.0482525423961749e-07 0.0000000000000000e+00  -5.2583310028621721e-07 -1.3784673065461134e-07 0.0000000000000000e+00  -4.7912809397793696e-07 -1.6889275995997503e-07 0.0000000000000000e+00  -4.3279278674002023e-07 -1.9858475133874211e-07 0.0000000000000000e+00  -3.7461004722277867e-07 -2.2392309466980431e-07 0.0000000000000000e+00  -3.3374848790781958e-07 -2.4919861018217230e-07 0.0000000000000000e+00  -2.5628010546150153e-07 -2.6235117161960627e-07 0.0000000000000000e+00  -2.5642857552258375e-07 -2.8455397389756249e-07 0.0000000000000000e+00  -1.1179525409752940e-07 -2.6611913464428935e-07 0.0000000000000000e+00  -2.7263965006588994e-07 -3.0282510015703226e-07 0.0000000000000000e+00  1.4030703808450397e-07 -1.9342564964853930e-07 0.0000000000000000e+00  -6.3741879003184273e-07 -3.4449291091794930e-07 0.0000000000000000e+00  7.0266915450260508e-07 4.5931598904401835e-08 0.0000000000000000e+00  -2.6434277433749590e-06 -6.0022828101434893e-07 0.0000000000000000e+00  2.2709648118040624e-06 1.1762202746488418e-06 0.0000000000000000e+00  0.0000000000000000e+00 0.0000000000000000e+00 0.0000000000000000e+00  0.0000000000000000e+00 0.0000000000000000e+00 0.0000000000000000e+00  -2.5718459852934244e-06 1.2086041765048590e-06 0.0000000000000000e+00  2.3327003958216846e-06 -1.4703004972248282e-07 0.0000000000000000e+00  -6.8305264388929515e-07 3.5689620477325460e-07 0.0000000000000000e+00  2.6021064423730441e-07 3.3688433148644011e-08 0.0000000000000000e+00  -1.7342112839439171e-07 6.3061447216096215e-08 0.0000000000000000e+00  -1.2125213232198045e-07 -1.8938009739939855e-08 0.0000000000000000e+00  -1.7413056041272538e-07 -4.0339595233563488e-08 0.0000000000000000e+00  -2.1446035837434235e-07 -5.7221871478341028e-08 0.0000000000000000e+00  -2.3967981154731636e-07 -5.9649583906240925e-08 0.0000000000000000e+00  -2.6383163438808646e-07 -5.3993335459427200e-08 0.0000000000000000e+00  -2.8223027328525697e-07 -4.2440429666060622e-08 0.0000000000000000e+00  -2.9792884460045399e-07 -2.6976214324543779e-08 0.0000000000000000e+00  -3.1225701810615012e-07 -9.0609458183807392e-09 0.0000000000000000e+00  -3.2609101600854160e-07 1.0325195514361398e-08 0.0000000000000000e+00  -3.4029772912954095e-07 3.0524501368376151e-08 0.0000000000000000e+00  -3.5544272281696210e-07 5.1132777210320283e-08 0.0000000000000000e+00  -3.7197387826549681e-07 7.1871751750845679e-08 0.0000000000000000e+00  -3.9024830460972495e-07 9.2435853872458855e-08 0.0000000000000000e+00  -4.1052210989902396e-07 1.1231542805883618e-07 0.0000000000000000e+00  -4.3288435644919324e-07 1.3063690851775706e-07 0.0000000000000000e+00  -4.5712352174455225e-07 1.4609002668848592e-07 0.0000000000000000e+00  -4.8257829876422001e-07 1.5700889220343228e-07 0.0000000000000000e+00  -5.0804277001712106e-07 1.6162869256626494e-07 0.0000000000000000e+00  -5.3180961393925500e-07 1.5846050681008668e-07 0.0000000000000000e+00  -5.5186882200135646e-07 1.4665875915461442e-07 0.0000000000000000e+00  -5.6624949976756597e-07 1.2624422326454003e-07 0.0000000000000000e+00  -5.7334121360985904e-07 9.8107048190612398e-08 0.0000000000000000e+00  -5.7220327656114517e-07 6.3798565249232362e-08 0.0000000000000000e+00  -5.6254633975254057e-07 2.5216985295310293e-08 0.0000000000000000e+00  -5.4489398700735295e-07 -1.5737312376127757e-08 0.0000000000000000e+00  -5.1995442374438287e-07 -5.7360808261905027e-08 0.0000000000000000e+00  -4.8936846457685885e-07 -9.8363428249733023e-08 0.0000000000000000e+00  -4.5363140759411615e-07 -1.3765161970669183e-07 0.0000000000000000e+00  -4.1589142506415653e-07 -1.7472949515365932e-07 0.0000000000000000e+00  -3.7398188063380025e-07 -2.0851068511921452e-07 0.0000000000000000e+00  -3.3652321309328327e-07 -2.3947181762778671e-07 0.0000000000000000e+00  -2.9035164308081158e-07 -2.6457774219715435e-07 0.0000000000000000e+00  -2.6641490663331994e-07 -2.8769563478894613e-07 0.0000000000000000e+00  -2.0707141886738524e-07 -2.9726881418197402e-07 0.0000000000000000e+00  -2.3217974572573927e-07 -3.1300909932014403e-07 0.0000000000000000e+00  -1.0716101024448652e-07 -2.8922011709775998e-07 0.0000000000000000e+00  -2.9989516175880346e-07 -3.1506040084729821e-07 0.0000000000000000e+00  1.0448401489155581e-07 -2.0960117285023557e-07 0.0000000000000000e+00  -7.0671719460366032e-07 -3.4280130744467822e-07 0.0000000000000000e+00  6.5615417922846604e-07 2.3814122756131156e-09 0.0000000000000000e+00  -2.6924787293492879e-06 -5.6420218824508669e-07 0.0000000000000000e+00  2.2564591072434999e-06 1.0071142365534836e-06 0.0000000000000000e+00  0.0000000000000000e+00 0.0000000000000000e+00 0.0000000000000000e+00  0.0000000000000000e+00 0.0000000000000000e+00 0.0000000000000000e+00  -2.5207336480498605e-06 1.1069172736212358e-06 0.0000000000000000e+00  2.5803196051735697e-06 -1.2365328874534719e-07 0.0000000000000000e+00  -8.1972860294540762e-07 3.6421899924578989e-07 0.0000000000000000e+00  4.7666673991905475e-07 5.0818390180814599e-08 0.0000000000000000e+00  -2.1414789636089579e-07 1.2132966701066075e-07 0.0000000000000000e+00  -5.0846914403723520e-10 2.0763030650218438e-08 0.0000000000000000e+00  -1.1803614225204028e-07 6.0006100373790230e-09 0.0000000000000000e+00  -1.3744926214178921e-07 -2.2195317908178919e-08 0.0000000000000000e+00  -1.7274947861734108e-07 -2.9446141827062216e-08 0.0000000000000000e+00  -2.0405381309440123e-07 -2.9597158814215186e-08 0.0000000000000000e+00  -2.2911429768868674e-07 -2.1851158019749413e-08 0.0000000000000000e+00  -2.5194570520665260e-07 -9.0196504722529048e-09 0.0000000000000000e+00  -2.7210088845626250e-07 7.3679659363132985e-09 0.0000000000000000e+00  -2.9068160129879547e-07 2.6066642299149167e-08 0.0000000000000000e+00  -3.0836569929065048e-07 4.6198603685699089e-08 0.0000000000000000e+00  -3.2564959209392686e-07 6.7214432747660922e-08 0.0000000000000000e+00  -3.4300492065417810e-07 8.8754985270916793e-08 0.0000000000000000e+00  -3.6085239312056662e-07 1.1048358800738627e-07 0.0000000000000000e+00  -3.7959170044630489e-07 1.3184145693408245e-07 0.0000000000000000e+00  -3.9951505666212638e-07 1.5179645258624227e-07 0.0000000000000000e+00  -4.2062109248754270e-07 1.6869151731726094e-07 0.0000000000000000e+00  -4.4238300500221935e-07 1.8032197253723903e-07 0.0000000000000000e+00  -4.6358123740284819e-07 1.8430339900896679e-07 0.0000000000000000e+00  -4.8234313567939899e-07 1.7864617660149771e-07 0.0000000000000000e+00  -4.9643397455873758e-07 1.6232042961894906e-07 0.0000000000000000e+00  -5.0375859832606819e-07 1.3557326923880240e-07 0.0000000000000000e+00  -5.0282541741034337e-07 9.9878698146054216e-08 0.0000000000000000e+00  -4.9311685493638733e-07 5.7563494111148176e-08 0.0000000000000000e+00  -4.7500671187307015e-07 1.1296622626910762e-08 0.0000000000000000e+00  -4.4981109389415929e-07 -3.6406329143309568e-08 0.0000000000000000e+00  -4.1898297214399083e-07 -8.3448206145172620e-08 0.0000000000000000e+00  -3.8482484041455959e-07 -1.2835642460869941e-07 0.0000000000000000e+00  -3.4822635596625972e-07 -1.7000640963562294e-07 0.0000000000000000e+00  -3.1270727231664659e-07 -2.0794768855328140e