<?xml version="1.0"?>
<VTKFile type="UnstructuredGrid"  version="0.1"  >
<UnstructuredGrid>
<Piece  NumberOfPoints="1617" NumberOfCells="3072">
<Points>
<DataArray  type="Float64"  NumberOfComponents="3"  format="ascii">0 0 0  0.03125 0 0  0.0625 0 0  0.09375 0 0  0.125 0 0  0.15625 0 0  0.1875 0 0  0.21875 0 0  0.25 0 0  0.28125 0 0  0.3125 0 0  0.34375 0 0  0.375 0 0  0.40625 0 0  0.4375 0 0  0.46875 0 0  0.5 0 0  0.53125 0 0  0.5625 0 0  0.59375 0 0  0.625 0 0  0.65625 0 0  0.6875 0 0  0.71875 0 0  0.75 0 0  0.78125 0 0  0.8125 0 0  0.84375 0 0  0.875 0 0  0.90625 0 0  0.9375 0 0  0.96875 0 0  1 0 0  1.03125 0 0  1.0625 0 0  1.09375 0 0  1.125 0 0  1.15625 0 0  1.1875 0 0  1.21875 0 0  1.25 0 0  1.28125 0 0  1.3125 0 0  1.34375 0 0  1.375 0 0  1.40625 0 0  1.4375 0 0  1.46875 0 0  1.5 0 0  0 0.03125 0  0.03125 0.03125 0  0.0625 0.03125 0  0.09375 0.03125 0  0.125 0.03125 0  0.15625 0.03125 0  0.1875 0.03125 0  0.21875 0.03125 0  0.25 0.03125 0  0.28125 0.03125 0  0.3125 0.03125 0  0.34375 0.03125 0  0.375 0.03125 0  0.40625 0.03125 0  0.4375 0.03125 0  0.46875 0.03125 0  0.5 0.03125 0  0.53125 0.03125 0  0.5625 0.03125 0  0.59375 0.03125 0  0.625 0.03125 0  0.65625 0.03125 0  0.6875 0.03125 0  0.71875 0.03125 0  0.75 0.03125 0  0.78125 0.03125 0  0.8125 0.03125 0  0.84375 0.03125 0  0.875 0.03125 0  0.90625 0.03125 0  0.9375 0.03125 0  0.96875 0.03125 0  1 0.03125 0  1.03125 0.03125 0  1.0625 0.03125 0  1.09375 0.03125 0  1.125 0.03125 0  1.15625 0.03125 0  1.1875 0.03125 0  1.21875 0.03125 0  1.25 0.03125 0  1.28125 0.03125 0  1.3125 0.03125 0  1.34375 0.03125 0  1.375 0.03125 0  1.40625 0.03125 0  1.4375 0.03125 0  1.46875 0.03125 0  1.5 0.03125 0  0 0.0625 0  0.03125 0.0625 0  0.0625 0.0625 0  0.09375 0.0625 0  0.125 0.0625 0  0.15625 0.0625 0  0.1875 0.0625 0  0.21875 0.0625 0  0.25 0.0625 0  0.28125 0.0625 0  0.3125 0.0625 0  0.34375 0.0625 0  0.375 0.0625 0  0.40625 0.0625 0  0.4375 0.0625 0  0.46875 0.0625 0  0.5 0.0625 0  0.53125 0.0625 0  0.5625 0.0625 0  0.59375 0.0625 0  0.625 0.0625 0  0.65625 0.0625 0  0.6875 0.0625 0  0.71875 0.0625 0  0.75 0.0625 0  0.78125 0.0625 0  0.8125 0.0625 0  0.84375 0.0625 0  0.875 0.0625 0  0.90625 0.0625 0  0.9375 0.0625 0  0.96875 0.0625 0  1 0.0625 0  1.03125 0.0625 0  1.0625 0.0625 0  1.09375 0.0625 0  1.125 0.0625 0  1.15625 0.0625 0  1.1875 0.0625 0  1.21875 0.0625 0  1.25 0.0625 0  1.28125 0.0625 0  1.3125 0.0625 0  1.34375 0.0625 0  1.375 0.0625 0  1.40625 0.0625 0  1.4375 0.0625 0  1.46875 0.0625 0  1.5 0.0625 0  0 0.09375 0  0.03125 0.09375 0  0.0625 0.09375 0  0.09375 0.09375 0  0.125 0.09375 0  0.15625 0.09375 0  0.1875 0.09375 0  0.21875 0.09375 0  0.25 0.09375 0  0.28125 0.09375 0  0.3125 0.09375 0  0.34375 0.09375 0  0.375 0.09375 0  0.40625 0.09375 0  0.4375 0.09375 0  0.46875 0.09375 0  0.5 0.09375 0  0.53125 0.09375 0  0.5625 0.09375 0  0.59375 0.09375 0  0.625 0.09375 0  0.65625 0.09375 0  0.6875 0.09375 0  0.71875 0.09375 0  0.75 0.09375 0  0.78125 0.09375 0  0.8125 0.09375 0  0.84375 0.09375 0  0.875 0.09375 0  0.90625 0.09375 0  0.9375 0.09375 0  0.96875 0.09375 0  1 0.09375 0  1.03125 0.09375 0  1.0625 0.09375 0  1.09375 0.09375 0  1.125 0.09375 0  1.15625 0.09375 0  1.1875 0.09375 0  1.21875 0.09375 0  1.25 0.09375 0  1.28125 0.09375 0  1.3125 0.09375 0  1.34375 0.09375 0  1.375 0.09375 0  1.40625 0.09375 0  1.4375 0.09375 0  1.46875 0.09375 0  1.5 0.09375 0  0 0.125 0  0.03125 0.125 0  0.0625 0.125 0  0.09375 0.125 0  0.125 0.125 0  0.15625 0.125 0  0.1875 0.125 0  0.21875 0.125 0  0.25 0.125 0  0.28125 0.125 0  0.3125 0.125 0  0.34375 0.125 0  0.375 0.125 0  0.40625 0.125 0  0.4375 0.125 0  0.46875 0.125 0  0.5 0.125 0  0.53125 0.125 0  0.5625 0.125 0  0.59375 0.125 0  0.625 0.125 0  0.65625 0.125 0  0.6875 0.125 0  0.71875 0.125 0  0.75 0.125 0  0.78125 0.125 0  0.8125 0.125 0  0.84375 0.125 0  0.875 0.125 0  0.90625 0.125 0  0.9375 0.125 0  0.96875 0.125 0  1 0.125 0  1.03125 0.125 0  1.0625 0.125 0  1.09375 0.125 0  1.125 0.125 0  1.15625 0.125 0  1.1875 0.125 0  1.21875 0.125 0  1.25 0.125 0  1.28125 0.125 0  1.3125 0.125 0  1.34375 0.125 0  1.375 0.125 0  1.40625 0.125 0  1.4375 0.125 0  1.46875 0.125 0  1.5 0.125 0  0 0.15625 0  0.03125 0.15625 0  0.0625 0.15625 0  0.09375 0.15625 0  0.125 0.15625 0  0.15625 0.15625 0  0.1875 0.15625 0  0.21875 0.15625 0  0.25 0.15625 0  0.28125 0.15625 0  0.3125 0.15625 0  0.34375 0.15625 0  0.375 0.15625 0  0.40625 0.15625 0  0.4375 0.15625 0  0.46875 0.15625 0  0.5 0.15625 0  0.53125 0.15625 0  0.5625 0.15625 0  0.59375 0.15625 0  0.625 0.15625 0  0.65625 0.15625 0  0.6875 0.15625 0  0.71875 0.15625 0  0.75 0.15625 0  0.78125 0.15625 0  0.8125 0.15625 0  0.84375 0.15625 0  0.875 0.15625 0  0.90625 0.15625 0  0.9375 0.15625 0  0.96875 0.15625 0  1 0.15625 0  1.03125 0.15625 0  1.0625 0.15625 0  1.09375 0.15625 0  1.125 0.15625 0  1.15625 0.15625 0  1.1875 0.15625 0  1.21875 0.15625 0  1.25 0.15625 0  1.28125 0.15625 0  1.3125 0.15625 0  1.34375 0.15625 0  1.375 0.15625 0  1.40625 0.15625 0  1.4375 0.15625 0  1.46875 0.15625 0  1.5 0.15625 0  0 0.1875 0  0.03125 0.1875 0  0.0625 0.1875 0  0.09375 0.1875 0  0.125 0.1875 0  0.15625 0.1875 0  0.1875 0.1875 0  0.21875 0.1875 0  0.25 0.1875 0  0.28125 0.1875 0  0.3125 0.1875 0  0.34375 0.1875 0  0.375 0.1875 0  0.40625 0.1875 0  0.4375 0.1875 0  0.46875 0.1875 0  0.5 0.1875 0  0.53125 0.1875 0  0.5625 0.1875 0  0.59375 0.1875 0  0.625 0.1875 0  0.65625 0.1875 0  0.6875 0.1875 0  0.71875 0.1875 0  0.75 0.1875 0  0.78125 0.1875 0  0.8125 0.1875 0  0.84375 0.1875 0  0.875 0.1875 0  0.90625 0.1875 0  0.9375 0.1875 0  0.96875 0.1875 0  1 0.1875 0  1.03125 0.1875 0  1.0625 0.1875 0  1.09375 0.1875 0  1.125 0.1875 0  1.15625 0.1875 0  1.1875 0.1875 0  1.21875 0.1875 0  1.25 0.1875 0  1.28125 0.1875 0  1.3125 0.1875 0  1.34375 0.1875 0  1.375 0.1875 0  1.40625 0.1875 0  1.4375 0.1875 0  1.46875 0.1875 0  1.5 0.1875 0  0 0.21875 0  0.03125 0.21875 0  0.0625 0.21875 0  0.09375 0.21875 0  0.125 0.21875 0  0.15625 0.21875 0  0.1875 0.21875 0  0.21875 0.21875 0  0.25 0.21875 0  0.28125 0.21875 0  0.3125 0.21875 0  0.34375 0.21875 0  0.375 0.21875 0  0.40625 0.21875 0  0.4375 0.21875 0  0.46875 0.21875 0  0.5 0.21875 0  0.53125 0.21875 0  0.5625 0.21875 0  0.59375 0.21875 0  0.625 0.21875 0  0.65625 0.21875 0  0.6875 0.21875 0  0.71875 0.21875 0  0.75 0.21875 0  0.78125 0.21875 0  0.8125 0.21875 0  0.84375 0.21875 0  0.875 0.21875 0  0.90625 0.21875 0  0.9375 0.21875 0  0.96875 0.21875 0  1 0.21875 0  1.03125 0.21875 0  1.0625 0.21875 0  1.09375 0.21875 0  1.125 0.21875 0  1.15625 0.21875 0  1.1875 0.21875 0  1.21875 0.21875 0  1.25 0.21875 0  1.28125 0.21875 0  1.3125 0.21875 0  1.34375 0.21875 0  1.375 0.21875 0  1.40625 0.21875 0  1.4375 0.21875 0  1.46875 0.21875 0  1.5 0.21875 0  0 0.25 0  0.03125 0.25 0  0.0625 0.25 0  0.09375 0.25 0  0.125 0.25 0  0.15625 0.25 0  0.1875 0.25 0  0.21875 0.25 0  0.25 0.25 0  0.28125 0.25 0  0.3125 0.25 0  0.34375 0.25 0  0.375 0.25 0  0.40625 0.25 0  0.4375 0.25 0  0.46875 0.25 0  0.5 0.25 0  0.53125 0.25 0  0.5625 0.25 0  0.59375 0.25 0  0.625 0.25 0  0.65625 0.25 0  0.6875 0.25 0  0.71875 0.25 0  0.75 0.25 0  0.78125 0.25 0  0.8125 0.25 0  0.84375 0.25 0  0.875 0.25 0  0.90625 0.25 0  0.9375 0.25 0  0.96875 0.25 0  1 0.25 0  1.03125 0.25 0  1.0625 0.25 0  1.09375 0.25 0  1.125 0.25 0  1.15625 0.25 0  1.1875 0.25 0  1.21875 0.25 0  1.25 0.25 0  1.28125 0.25 0  1.3125 0.25 0  1.34375 0.25 0  1.375 0.25 0  1.40625 0.25 0  1.4375 0.25 0  1.46875 0.25 0  1.5 0.25 0  0 0.28125 0  0.03125 0.28125 0  0.0625 0.28125 0  0.09375 0.28125 0  0.125 0.28125 0  0.15625 0.28125 0  0.1875 0.28125 0  0.21875 0.28125 0  0.25 0.28125 0  0.28125 0.28125 0  0.3125 0.28125 0  0.34375 0.28125 0  0.375 0.28125 0  0.40625 0.28125 0  0.4375 0.28125 0  0.46875 0.28125 0  0.5 0.28125 0  0.53125 0.28125 0  0.5625 0.28125 0  0.59375 0.28125 0  0.625 0.28125 0  0.65625 0.28125 0  0.6875 0.28125 0  0.71875 0.28125 0  0.75 0.28125 0  0.78125 0.28125 0  0.8125 0.28125 0  0.84375 0.28125 0  0.875 0.28125 0  0.90625 0.28125 0  0.9375 0.28125 0  0.96875 0.28125 0  1 0.28125 0  1.03125 0.28125 0  1.0625 0.28125 0  1.09375 0.28125 0  1.125 0.28125 0  1.15625 0.28125 0  1.1875 0.28125 0  1.21875 0.28125 0  1.25 0.28125 0  1.28125 0.28125 0  1.3125 0.28125 0  1.34375 0.28125 0  1.375 0.28125 0  1.40625 0.28125 0  1.4375 0.28125 0  1.46875 0.28125 0  1.5 0.28125 0  0 0.3125 0  0.03125 0.3125 0  0.0625 0.3125 0  0.09375 0.3125 0  0.125 0.3125 0  0.15625 0.3125 0  0.1875 0.3125 0  0.21875 0.3125 0  0.25 0.3125 0  0.28125 0.3125 0  0.3125 0.3125 0  0.34375 0.3125 0  0.375 0.3125 0  0.40625 0.3125 0  0.4375 0.3125 0  0.46875 0.3125 0  0.5 0.3125 0  0.53125 0.3125 0  0.5625 0.3125 0  0.59375 0.3125 0  0.625 0.3125 0  0.65625 0.3125 0  0.6875 0.3125 0  0.71875 0.3125 0  0.75 0.3125 0  0.78125 0.3125 0  0.8125 0.3125 0  0.84375 0.3125 0  0.875 0.3125 0  0.90625 0.3125 0  0.9375 0.3125 0  0.96875 0.3125 0  1 0.3125 0  1.03125 0.3125 0  1.0625 0.3125 0  1.09375 0.3125 0  1.125 0.3125 0  1.15625 0.3125 0  1.1875 0.3125 0  1.21875 0.3125 0  1.25 0.3125 0  1.28125 0.3125 0  1.3125 0.3125 0  1.34375 0.3125 0  1.375 0.3125 0  1.40625 0.3125 0  1.4375 0.3125 0  1.46875 0.3125 0  1.5 0.3125 0  0 0.34375 0  0.03125 0.34375 0  0.0625 0.34375 0  0.09375 0.34375 0  0.125 0.34375 0  0.15625 0.34375 0  0.1875 0.34375 0  0.21875 0.34375 0  0.25 0.34375 0  0.28125 0.34375 0  0.3125 0.34375 0  0.34375 0.34375 0  0.375 0.34375 0  0.40625 0.34375 0  0.4375 0.34375 0  0.46875 0.34375 0  0.5 0.34375 0  0.53125 0.34375 0  0.5625 0.34375 0  0.59375 0.34375 0  0.625 0.34375 0  0.65625 0.34375 0  0.6875 0.34375 0  0.71875 0.34375 0  0.75 0.34375 0  0.78125 0.34375 0  0.8125 0.34375 0  0.84375 0.34375 0  0.875 0.34375 0  0.90625 0.34375 0  0.9375 0.34375 0  0.96875 0.34375 0  1 0.34375 0  1.03125 0.34375 0  1.0625 0.34375 0  1.09375 0.34375 0  1.125 0.34375 0  1.15625 0.34375 0  1.1875 0.34375 0  1.21875 0.34375 0  1.25 0.34375 0  1.28125 0.34375 0  1.3125 0.34375 0  1.34375 0.34375 0  1.375 0.34375 0  1
[...]
<PointData  Vectors="f_17"> 
<DataArray  type="Float64"  Name="f_17"  NumberOfComponents="3" format="ascii">0.0000000000000000e+00 0.0000000000000000e+00 0.0000000000000000e+00  0.0000000000000000e+00 0.0000000000000000e+00 0.0000000000000000e+00  0.0000000000000000e+00 0.0000000000000000e+00 0.0000000000000000e+00  0.0000000000000000e+00 0.0000000000000000e+00 0.0000000000000000e+00  0.0000000000000000e+00 0.0000000000000000e+00 0.0000000000000000e+00  0.0000000000000000e+00 0.0000000000000000e+00 0.0000000000000000e+00  0.0000000000000000e+00 0.0000000000000000e+00 0.0000000000000000e+00  0.0000000000000000e+00 0.0000000000000000e+00 0.0000000000000000e+00  0.0000000000000000e+00 0.0000000000000000e+00 0.0000000000000000e+00  0.0000000000000000e+00 0.0000000000000000e+00 0.0000000000000000e+00  0.0000000000000000e+00 0.0000000000000000e+00 0.0000000000000000e+00  0.0000000000000000e+00 0.0000000000000000e+00 0.0000000000000000e+00  0.0000000000000000e+00 0.0000000000000000e+00 0.0000000000000000e+00  0.0000000000000000e+00 0.0000000000000000e+00 0.0000000000000000e+00  0.0000000000000000e+00 0.0000000000000000e+00 0.0000000000000000e+00  0.0000000000000000e+00 0.0000000000000000e+00 0.0000000000000000e+00  0.0000000000000000e+00 0.0000000000000000e+00 0.0000000000000000e+00  0.0000000000000000e+00 0.0000000000000000e+00 0.0000000000000000e+00  0.0000000000000000e+00 0.0000000000000000e+00 0.0000000000000000e+00  0.0000000000000000e+00 0.0000000000000000e+00 0.0000000000000000e+00  0.0000000000000000e+00 0.0000000000000000e+00 0.0000000000000000e+00  0.0000000000000000e+00 0.0000000000000000e+00 0.0000000000000000e+00  0.0000000000000000e+00 0.0000000000000000e+00 0.0000000000000000e+00  0.0000000000000000e+00 0.0000000000000000e+00 0.0000000000000000e+00  0.0000000000000000e+00 0.0000000000000000e+00 0.0000000000000000e+00  0.0000000000000000e+00 0.0000000000000000e+00 0.0000000000000000e+00  0.0000000000000000e+00 0.0000000000000000e+00 0.0000000000000000e+00  0.0000000000000000e+00 0.0000000000000000e+00 0.0000000000000000e+00  0.0000000000000000e+00 0.0000000000000000e+00 0.0000000000000000e+00  0.0000000000000000e+00 0.0000000000000000e+00 0.0000000000000000e+00  0.0000000000000000e+00 0.0000000000000000e+00 0.0000000000000000e+00  0.0000000000000000e+00 0.0000000000000000e+00 0.0000000000000000e+00  0.0000000000000000e+00 0.0000000000000000e+00 0.0000000000000000e+00  0.0000000000000000e+00 0.0000000000000000e+00 0.0000000000000000e+00  0.0000000000000000e+00 0.0000000000000000e+00 0.0000000000000000e+00  0.0000000000000000e+00 0.0000000000000000e+00 0.0000000000000000e+00  0.0000000000000000e+00 0.0000000000000000e+00 0.0000000000000000e+00  0.0000000000000000e+00 0.0000000000000000e+00 0.0000000000000000e+00  0.0000000000000000e+00 0.0000000000000000e+00 0.0000000000000000e+00  0.0000000000000000e+00 0.0000000000000000e+00 0.0000000000000000e+00  0.0000000000000000e+00 0.0000000000000000e+00 0.0000000000000000e+00  0.0000000000000000e+00 0.0000000000000000e+00 0.0000000000000000e+00  0.0000000000000000e+00 0.0000000000000000e+00 0.0000000000000000e+00  0.0000000000000000e+00 0.0000000000000000e+00 0.0000000000000000e+00  0.0000000000000000e+00 0.0000000000000000e+00 0.0000000000000000e+00  0.0000000000000000e+00 0.0000000000000000e+00 0.0000000000000000e+00  0.0000000000000000e+00 0.0000000000000000e+00 0.0000000000000000e+00  0.0000000000000000e+00 0.0000000000000000e+00 0.0000000000000000e+00  0.0000000000000000e+00 0.0000000000000000e+00 0.0000000000000000e+00  0.0000000000000000e+00 0.0000000000000000e+00 0.0000000000000000e+00  1.0527270248695369e-07 -6.5742319804357945e-08 0.0000000000000000e+00  -1.5651461503089082e-07 9.7056581279197871e-08 0.0000000000000000e+00  -5.7413513024932124e-08 -1.9822532301641676e-09 0.0000000000000000e+00  -2.5110178490186142e-07 -3.3381150194322045e-08 0.0000000000000000e+00  -2.4532674644869738e-07 -5.9503181468474165e-08 0.0000000000000000e+00  -2.4427933064144695e-07 -6.5841472013545862e-08 0.0000000000000000e+00  -2.4637462440961682e-07 -6.0433360053705295e-08 0.0000000000000000e+00  -2.3675411659705081e-07 -5.2477859699112678e-08 0.0000000000000000e+00  -2.2733351047044481e-07 -4.3280339650798396e-08 0.0000000000000000e+00  -2.1840302414822222e-07 -3.3972479768968305e-08 0.0000000000000000e+00  -2.1137319198031575e-07 -2.4989276812302239e-08 0.0000000000000000e+00  -2.0759538187170761e-07 -1.6430519122540480e-08 0.0000000000000000e+00  -2.0761061712736922e-07 -8.3347675995258371e-09 0.0000000000000000e+00  -2.1184039441049313e-07 -6.7144742405921554e-10 0.0000000000000000e+00  -2.2054569320501365e-07 6.6258659342080653e-09 0.0000000000000000e+00  -2.3389321637414385e-07 1.3631057540937820e-08 0.0000000000000000e+00  -2.5200128068395255e-07 2.0395007416584184e-08 0.0000000000000000e+00  -2.7492877240640088e-07 2.6910403924814808e-08 0.0000000000000000e+00  -3.0263633437727822e-07 3.3079100857596653e-08 0.0000000000000000e+00  -3.3491713819162535e-07 3.8691972098095313e-08 0.0000000000000000e+00  -3.7131211177807800e-07 4.3431895629263077e-08 0.0000000000000000e+00  -4.1103470441826186e-07 4.6906603004615747e-08 0.0000000000000000e+00  -4.5292941880490394e-07 4.8709208789284527e-08 0.0000000000000000e+00  -4.9549132324021773e-07 4.8493596816513961e-08 0.0000000000000000e+00  -5.3694403901126700e-07 4.6044629209310024e-08 0.0000000000000000e+00  -5.7538604989061738e-07 4.1322321079239976e-08 0.0000000000000000e+00  -6.0893380123051833e-07 3.4469853543492252e-08 0.0000000000000000e+00  -6.3591618431248080e-07 2.5780286201514123e-08 0.0000000000000000e+00  -6.5490490121801396e-07 1.5647389696186768e-08 0.0000000000000000e+00  -6.6494743979130676e-07 4.4838152197923894e-09 0.0000000000000000e+00  -6.6520937137385854e-07 -7.2956316611109337e-09 0.0000000000000000e+00  -6.5568315375964774e-07 -1.9406125352393617e-08 0.0000000000000000e+00  -6.3557412918109508e-07 -3.1493970284991813e-08 0.0000000000000000e+00  -6.0644939605771255e-07 -4.3620519475142225e-08 0.0000000000000000e+00  -5.6552355594323453e-07 -5.5142720854766857e-08 0.0000000000000000e+00  -5.1939540042140016e-07 -6.7131363165729898e-08 0.0000000000000000e+00  -4.5561023353587490e-07 -7.6905552847198228e-08 0.0000000000000000e+00  -4.0120838550626338e-07 -8.9874330047203684e-08 0.0000000000000000e+00  -3.0258679547937044e-07 -9.3557921920045216e-08 0.0000000000000000e+00  -2.7126832176607266e-07 -1.1336238595596173e-07 0.0000000000000000e+00  -8.3788568224425090e-08 -9.2818391321013767e-08 0.0000000000000000e+00  -1.9465957036069543e-07 -1.4647140952481107e-07 0.0000000000000000e+00  2.9923469504323372e-07 -2.8968967842088742e-08 0.0000000000000000e+00  -4.3194997733718007e-07 -2.3833730241552354e-07 0.0000000000000000e+00  1.1420096218559820e-06 2.3361612270874782e-07 0.0000000000000000e+00  -2.3949129487026173e-06 -7.6413932528404652e-07 0.0000000000000000e+00  2.9256694747425779e-06 1.2984049012811209e-06 0.0000000000000000e+00  0.0000000000000000e+00 0.0000000000000000e+00 0.0000000000000000e+00  0.0000000000000000e+00 0.0000000000000000e+00 0.0000000000000000e+00  -1.3387194368274184e-06 5.8999820676844356e-07 0.0000000000000000e+00  7.5182921809401510e-07 -4.5558335346910907e-08 0.0000000000000000e+00  -9.7490642100757912e-08 1.1911308920620581e-07 0.0000000000000000e+00  -2.5175199812280793e-07 8.2280151892559603e-09 0.0000000000000000e+00  -2.6898508168554889e-07 -4.0431466961492003e-08 0.0000000000000000e+00  -3.3493261162005013e-07 -6.3794055449713439e-08 0.0000000000000000e+00  -3.4278140007865394e-07 -7.1334339463882114e-08 0.0000000000000000e+00  -3.4077575619717950e-07 -6.9830218600823611e-08 0.0000000000000000e+00  -3.3424064061993039e-07 -6.2796876996800234e-08 0.0000000000000000e+00  -3.2434726398972358e-07 -5.2683881718820001e-08 0.0000000000000000e+00  -3.1571479595037752e-07 -4.0796815207061017e-08 0.0000000000000000e+00  -3.0962328007686970e-07 -2.7973192311346210e-08 0.0000000000000000e+00  -3.0711371047202453e-07 -1.4741340896960515e-08 0.0000000000000000e+00  -3.0887939642487329e-07 -1.3976867325071543e-09 0.0000000000000000e+00  -3.1527822236200569e-07 1.1912631952806806e-08 0.0000000000000000e+00  -3.2653950109552785e-07 2.5128003915856342e-08 0.0000000000000000e+00  -3.4279111483671400e-07 3.8198771222371209e-08 0.0000000000000000e+00  -3.6407706214196118e-07 5.1007428207786922e-08 0.0000000000000000e+00  -3.9032973168106913e-07 6.3291784762812811e-08 0.0000000000000000e+00  -4.2129761984585640e-07 7.4590232784251662e-08 0.0000000000000000e+00  -4.5644872856666709e-07 8.4232648799768116e-08 0.0000000000000000e+00  -4.9487898393946014e-07 9.1394793598113425e-08 0.0000000000000000e+00  -5.3526072020418386e-07 9.5215624691360901e-08 0.0000000000000000e+00  -5.7586985876187098e-07 9.4952645602211189e-08 0.0000000000000000e+00  -6.1469183198945956e-07 9.0132005026190955e-08 0.0000000000000000e+00  -6.4961386754183099e-07 8.0646945880151346e-08 0.0000000000000000e+00  -6.7861205423062944e-07 6.6778157031532924e-08 0.0000000000000000e+00  -6.9998404050152227e-07 4.9129315644641671e-08 0.0000000000000000e+00  -7.1237988326227531e-07 2.8517474908776605e-08 0.0000000000000000e+00  -7.1503937950076275e-07 5.8202236882751105e-09 0.0000000000000000e+00  -7.0737324209807712e-07 -1.8100492985234553e-08 0.0000000000000000e+00  -6.8970048773394855e-07 -4.2570424026912758e-08 0.0000000000000000e+00  -6.6150082454118265e-07 -6.6917863465494656e-08 0.0000000000000000e+00  -6.2474685378856306e-07 -9.0941292404479627e-08 0.0000000000000000e+00  -5.7685246976616649e-07 -1.1379475171453472e-07 0.0000000000000000e+00  -5.2500634390176809e-07 -1.3627284920598756e-07 0.0000000000000000e+00  -4.5681092992066447e-07 -1.5557915600615219e-07 0.0000000000000000e+00  -4.0033458233928819e-07 -1.7638734605595668e-07 0.0000000000000000e+00  -3.0195511249573799e-07 -1.8666862500608528e-07 0.0000000000000000e+00  -2.7459169350891537e-07 -2.0891603386557201e-07 0.0000000000000000e+00  -9.6053133016663877e-08 -1.9106199973570269e-07 0.0000000000000000e+00  -2.1990791217104458e-07 -2.3540547015725039e-07 0.0000000000000000e+00  2.4517699973110939e-07 -1.2257940875759945e-07 0.0000000000000000e+00  -5.0414016950982160e-07 -2.9891789854787407e-07 0.0000000000000000e+00  9.5846572619586450e-07 1.3267601124987414e-07 0.0000000000000000e+00  -2.4251600974016428e-06 -6.5013514893039269e-07 0.0000000000000000e+00  2.7835003211893050e-06 1.3035285986587376e-06 0.0000000000000000e+00  0.0000000000000000e+00 0.0000000000000000e+00 0.0000000000000000e+00  0.0000000000000000e+00 0.0000000000000000e+00 0.0000000000000000e+00  -2.4538755854255635e-06 1.0583546877259512e-06 0.0000000000000000e+00  1.6832156035208524e-06 -1.4968626023728820e-07 0.0000000000000000e+00  -3.8478645002339217e-07 2.7451653897514969e-07 0.0000000000000000e+00  2.2260620983496038e-08 3.0410548464104871e-08 0.0000000000000000e+00  -1.2346585896565815e-07 6.9715105421445782e-09 0.0000000000000000e+00  -1.8616237010983390e-07 -4.3655315474998065e-08 0.0000000000000000e+00  -2.0910018339233419e-07 -6.3052411864258073e-08 0.0000000000000000e+00  -2.4291721842995226e-07 -6.9153378803382764e-08 0.0000000000000000e+00  -2.6143905019132948e-07 -6.5752859528446331e-08 0.0000000000000000e+00  -2.7488412106969043e-07 -5.6293143716452094e-08 0.0000000000000000e+00  -2.8546574633269808e-07 -4.3167315457540440e-08 0.0000000000000000e+00  -2.9438109368054890e-07 -2.7887770279094657e-08 0.0000000000000000e+00  -3.0347235315355184e-07 -1.1447846075132496e-08 0.0000000000000000e+00  -3.1369094506576701e-07 5.5497713169814869e-09 0.0000000000000000e+00  -3.2577025743275026e-07 2.2769554383279187e-08 0.0000000000000000e+00  -3.4024295522861118e-07 4.0043066354340277e-08 0.0000000000000000e+00  -3.5748388043658602e-07 5.7261945886550666e-08 0.0000000000000000e+00  -3.7776602605018899e-07 7.4254338912587785e-08 0.0000000000000000e+00  -4.0123965456741803e-07 9.0658783393692905e-08 0.0000000000000000e+00  -4.2786590944409145e-07 1.0582357434328751e-07 0.0000000000000000e+00  -4.5730964835071193e-07 1.1877415906392082e-07 0.0000000000000000e+00  -4.8882862452205452e-07 1.2828473110815096e-07 0.0000000000000000e+00  -5.2120939932529790e-07 1.3305967193006883e-07 0.0000000000000000e+00  -5.5280481974631537e-07 1.3198529670126995e-07 0.0000000000000000e+00  -5.8167924370580710e-07 1.2437576502135716e-07 0.0000000000000000e+00  -6.0586095137213218e-07 1.1013068052837649e-07 0.0000000000000000e+00  -6.2358378163705939e-07 8.9757138758594951e-08 0.0000000000000000e+00  -6.3355150232138378e-07 6.4252435885408399e-08 0.0000000000000000e+00  -6.3495312627523495e-07 3.4911230289277529e-08 0.0000000000000000e+00  -6.2766924237338595e-07 3.0869312711659432e-09 0.0000000000000000e+00  -6.1177489414262753e-07 -2.9945165054158100e-08 0.0000000000000000e+00  -5.8826804282986619e-07 -6.3193543680380538e-08 0.0000000000000000e+00  -5.5720984898167823e-07 -9.5757091225454549e-08 0.0000000000000000e+00  -5.2119609149113637e-07 -1.2728126212330535e-07 0.0000000000000000e+00  -4.7803827284770596e-07 -1.5679058613837403e-07 0.0000000000000000e+00  -4.3560700609330614e-07 -1.8495414841284294e-07 0.0000000000000000e+00  -3.8162850319285842e-07 -2.0882951212668355e-07 0.0000000000000000e+00  -3.4515966339176507e-07 -2.3277458518664611e-07 0.0000000000000000e+00  -2.7223257861615843e-07 -2.4481233038595111e-07 0.0000000000000000e+00  -2.7687074166287783e-07 -2.6624233290133482e-07 0.0000000000000000e+00  -1.3695267259459669e-07 -2.4765132525346107e-07 0.0000000000000000e+00  -3.0223005527850244e-07 -2.8535394269818073e-07 0.0000000000000000e+00  1.0693052461988816e-07 -1.7946286759514175e-07 0.0000000000000000e+00  -6.7238248277309056e-07 -3.3867605945889774e-07 0.0000000000000000e+00  7.0635687677860590e-07 3.8852116777187186e-08 0.0000000000000000e+00  -2.6082536298984329e-06 -6.3290063039833923e-07 0.0000000000000000e+00  2.4144173313470391e-06 1.0703770072445607e-06 0.0000000000000000e+00  0.0000000000000000e+00 0.0000000000000000e+00 0.0000000000000000e+00  0.0000000000000000e+00 0.0000000000000000e+00 0.0000000000000000e+00  -2.7220576404504172e-06 1.1051908337186866e-06 0.0000000000000000e+00  2.2823825266618689e-06 -1.8338941701577009e-07 0.0000000000000000e+00  -7.0311531597382622e-07 3.4917254879214026e-07 0.0000000000000000e+00  2.7983028640580276e-07 4.0092068224240195e-08 0.0000000000000000e+00  -1.4870904564096470e-07 7.7771732353432303e-08 0.0000000000000000e+00  -9.4953504780473633e-08 -1.8462868491870112e-09 0.0000000000000000e+00  -1.4664891417933592e-07 -2.3110957996241474e-08 0.0000000000000000e+00  -1.8670624334604680e-07 -4.0860774414630613e-08 0.0000000000000000e+00  -2.1205792046746857e-07 -4.4526616583484617e-08 0.0000000000000000e+00  -2.3671742158397994e-07 -4.0275747960425617e-08 0.0000000000000000e+00  -2.5586740227538018e-07 -3.0245791801572128e-08 0.0000000000000000e+00  -2.7244145725436808e-07 -1.6396603377305890e-08 0.0000000000000000e+00  -2.8766908927959071e-07 -1.5753499042915373e-10 0.0000000000000000e+00  -3.0235172635853011e-07 1.7537329988936925e-08 0.0000000000000000e+00  -3.1730456520699262e-07 3.6088139900708631e-08 0.0000000000000000e+00  -3.3306403697976060e-07 5.5155282269354595e-08 0.0000000000000000e+00  -3.5007126778796923e-07 7.4525900943503776e-08 0.0000000000000000e+00  -3.6869829091134287e-07 9.3953989959376352e-08 0.0000000000000000e+00  -3.8923509386347931e-07 1.1297625721929393e-07 0.0000000000000000e+00  -4.1181770689735923e-07 1.3074542946041566e-07 0.0000000000000000e+00  -4.3628563158571648e-07 1.4595330164476578e-07 0.0000000000000000e+00  -4.6202220442263922e-07 1.5691285193547725e-07 0.0000000000000000e+00  -4.8785155979441077e-07 1.6182212107897483e-07 0.0000000000000000e+00  -5.1207986857353529e-07 1.5915034955611764e-07 0.0000000000000000e+00  -5.3269998041415880e-07 1.4801651389367228e-07 0.0000000000000000e+00  -5.4774435553175344e-07 1.2841901197203044e-07 0.0000000000000000e+00  -5.5561698191546474e-07 1.0123937128578757e-07 0.0000000000000000e+00  -5.5540741523088108e-07 6.8029958534003743e-08 0.0000000000000000e+00  -5.4686985642371895e-07 3.0693370397370546e-08 0.0000000000000000e+00  -5.3057676514130208e-07 -8.8685009758508653e-09 0.0000000000000000e+00  -5.0728112875593078e-07 -4.8958380898493682e-08 0.0000000000000000e+00  -4.7865541357528033e-07 -8.8303494473409254e-08 0.0000000000000000e+00  -4.4520818806092490e-07 -1.2584059415584006e-07 0.0000000000000000e+00  -4.1007678320216581e-07 -1.6111815492878749e-07 0.0000000000000000e+00  -3.7106164544548531e-07 -1.9310866258899995e-07 0.0000000000000000e+00  -3.3671812255241755e-07 -2.2236240955531461e-07 0.0000000000000000e+00  -2.9380542443414343e-07 -2.4593329288608388e-07 0.0000000000000000e+00  -2.7313684820476516e-07 -2.6779668080209926e-07 0.0000000000000000e+00  -2.1700689080676596e-07 -2.7653518207140944e-07 0.0000000000000000e+00  -2.4504644160863393e-07 -2.9206472810245597e-07 0.0000000000000000e+00  -1.2294252904184396e-07 -2.6905728930408670e-07 0.0000000000000000e+00  -3.1808916064612095e-07 -2.9728703401449593e-07 0.0000000000000000e+00  8.4462219079617966e-08 -1.9712088793774509e-07 0.0000000000000000e+00  -7.2706722367349527e-07 -3.4028543700595586e-07 0.0000000000000000e+00  6.7389306707212429e-07 -9.6564629722427610e-09 0.0000000000000000e+00  -2.6460665124265967e-06 -6.0151397185925335e-07 0.0000000000000000e+00  2.4064491890463386e-06 9.0403470333537723e-07 0.0000000000000000e+00  0.0000000000000000e+00 0.0000000000000000e+00 0.0000000000000000e+00  0.0000000000000000e+00 0.0000000000000000e+00 0.0000000000000000e+00  -2.6752554768130702e-06 1.0081023354447169e-06 0.0000000000000000e+00  2.5222657131938579e-06 -1.6505683344674950e-07 0.0000000000000000e+00  -8.5021696442329937e-07 3.4774656007356935e-07 0.0000000000000000e+00  4.8573603057273118e-07 5.0029247917107586e-08 0.0000000000000000e+00  -2.0098471550665175e-07 1.3032875987960547e-07 0.0000000000000000e+00  1.5567855349306542e-08 3.4122545731760867e-08 0.0000000000000000e+00  -9.9316641289928151e-08 2.1037502367782992e-08 0.0000000000000000e+00  -1.1701429791619577e-07 -6.9375091035369346e-09 0.0000000000000000e+00  -1.5105392557212741e-07 -1.4690267549766943e-08 0.0000000000000000e+00  -1.8169806152128025e-07 -1.5774594341032710e-08 0.0000000000000000e+00  -2.0654461254768554e-07 -9.2632953861828659e-09 0.0000000000000000e+00  -2.2947788360025523e-07 2.1087078054481279e-09 0.0000000000000000e+00  -2.4993360609535915e-07 1.6876527511142926e-08 0.0000000000000000e+00  -2.6892215271664326e-07 3.3866629780136051e-08 0.0000000000000000e+00  -2.8705375518468551e-07 5.2281129156715986e-08 0.0000000000000000e+00  -3.0478011876604766e-07 7.1656843937758663e-08 0.0000000000000000e+00  -3.2255102309871395e-07 9.1722156825191345e-08 0.0000000000000000e+00  -3.4078810145131383e-07 1.1222168166757326e-07 0.0000000000000000e+00  -3.5991235631440208e-07 1.3266186857623336e-07 0.0000000000000000e+00  -3.8025088584927072e-07 1.5204934070031840e-07 0.0000000000000000e+00  -4.0183892316411831e-07 1.6873203632403232e-07 0.0000000000000000e+00  -4.2417336122039658e-07 1.8047709823570708e-07 0.0000000000000000e+00  -4.4603398219376453e-07 1.8484961080064231e-07 0.0000000000000000e+00  -4.6552213645613272e-07 1.7980501194398169e-07 0.0000000000000000e+00  -4.8036438879082403e-07 1.6427087541522264e-07 0.0000000000000000e+00  -4.8843503815501423e-07 1.3847265601990080e-07 0.0000000000000000e+00  -4.8823802360683644e-07 1.0388188119448305e-07 0.0000000000000000e+00  -4.7928312012310584e-07 6.2833461807577050e-08 0.0000000000000000e+00  -4.6199591624444433e-07 1.8004709099746260e-08 0.0000000000000000e+00  -4.3775358308356286e-07 -2.8088800387855536e-08 0.0000000000000000e+00  -4.0806408274298871e-07 -7.3363692862094069e-08 0.0000000000000000e+00  -3.7526661465865197e-07 -1.1637758297728945e-07 0.0000000000000000e+00  -3.4026358997382182e-07 -1.5605337825746426e-07 0.0000000000000000e+00  -3.0655896575908575e-07 -1.9200542015696798e-07 0