<?xml version="1.0"?>
<VTKFile type="UnstructuredGrid"  version="0.1"  >
<UnstructuredGrid>
<Piece  NumberOfPoints="1617" NumberOfCells="3072">
<Points>
<DataArray  type="Float64"  NumberOfComponents="3"  format="ascii">0 0 0  0.03125 0 0  0.0625 0 0  0.09375 0 0  0.125 0 0  0.15625 0 0  0.1875 0 0  0.21875 0 0  0.25 0 0  0.28125 0 0  0.3125 0 0  0.34375 0 0  0.375 0 0  0.40625 0 0  0.4375 0 0  0.46875 0 0  0.5 0 0  0.53125 0 0  0.5625 0 0  0.59375 0 0  0.625 0 0  0.65625 0 0  0.6875 0 0  0.71875 0 0  0.75 0 0  0.78125 0 0  0.8125 0 0  0.84375 0 0  0.875 0 0  0.90625 0 0  0.9375 0 0  0.96875 0 0  1 0 0  1.03125 0 0  1.0625 0 0  1.09375 0 0  1.125 0 0  1.15625 0 0  1.1875 0 0  1.21875 0 0  1.25 0 0  1.28125 0 0  1.3125 0 0  1.34375 0 0  1.375 0 0  1.40625 0 0  1.4375 0 0  1.46875 0 0  1.5 0 0  0 0.03125 0  0.03125 0.03125 0  0.0625 0.03125 0  0.09375 0.03125 0  0.125 0.03125 0  0.15625 0.03125 0  0.1875 0.03125 0  0.21875 0.03125 0  0.25 0.03125 0  0.28125 0.03125 0  0.3125 0.03125 0  0.34375 0.03125 0  0.375 0.03125 0  0.40625 0.03125 0  0.4375 0.03125 0  0.46875 0.03125 0  0.5 0.03125 0  0.53125 0.03125 0  0.5625 0.03125 0  0.59375 0.03125 0  0.625 0.03125 0  0.65625 0.03125 0  0.6875 0.03125 0  0.71875 0.03125 0  0.75 0.03125 0  0.78125 0.03125 0  0.8125 0.03125 0  0.84375 0.03125 0  0.875 0.03125 0  0.90625 0.03125 0  0.9375 0.03125 0  0.96875 0.03125 0  1 0.03125 0  1.03125 0.03125 0  1.0625 0.03125 0  1.09375 0.03125 0  1.125 0.03125 0  1.15625 0.03125 0  1.1875 0.03125 0  1.21875 0.03125 0  1.25 0.03125 0  1.28125 0.03125 0  1.3125 0.03125 0  1.34375 0.03125 0  1.375 0.03125 0  1.40625 0.03125 0  1.4375 0.03125 0  1.46875 0.03125 0  1.5 0.03125 0  0 0.0625 0  0.03125 0.0625 0  0.0625 0.0625 0  0.09375 0.0625 0  0.125 0.0625 0  0.15625 0.0625 0  0.1875 0.0625 0  0.21875 0.0625 0  0.25 0.0625 0  0.28125 0.0625 0  0.3125 0.0625 0  0.34375 0.0625 0  0.375 0.0625 0  0.40625 0.0625 0  0.4375 0.0625 0  0.46875 0.0625 0  0.5 0.0625 0  0.53125 0.0625 0  0.5625 0.0625 0  0.59375 0.0625 0  0.625 0.0625 0  0.65625 0.0625 0  0.6875 0.0625 0  0.71875 0.0625 0  0.75 0.0625 0  0.78125 0.0625 0  0.8125 0.0625 0  0.84375 0.0625 0  0.875 0.0625 0  0.90625 0.0625 0  0.9375 0.0625 0  0.96875 0.0625 0  1 0.0625 0  1.03125 0.0625 0  1.0625 0.0625 0  1.09375 0.0625 0  1.125 0.0625 0  1.15625 0.0625 0  1.1875 0.0625 0  1.21875 0.0625 0  1.25 0.0625 0  1.28125 0.0625 0  1.3125 0.0625 0  1.34375 0.0625 0  1.375 0.0625 0  1.40625 0.0625 0  1.4375 0.0625 0  1.46875 0.0625 0  1.5 0.0625 0  0 0.09375 0  0.03125 0.09375 0  0.0625 0.09375 0  0.09375 0.09375 0  0.125 0.09375 0  0.15625 0.09375 0  0.1875 0.09375 0  0.21875 0.09375 0  0.25 0.09375 0  0.28125 0.09375 0  0.3125 0.09375 0  0.34375 0.09375 0  0.375 0.09375 0  0.40625 0.09375 0  0.4375 0.09375 0  0.46875 0.09375 0  0.5 0.09375 0  0.53125 0.09375 0  0.5625 0.09375 0  0.59375 0.09375 0  0.625 0.09375 0  0.65625 0.09375 0  0.6875 0.09375 0  0.71875 0.09375 0  0.75 0.09375 0  0.78125 0.09375 0  0.8125 0.09375 0  0.84375 0.09375 0  0.875 0.09375 0  0.90625 0.09375 0  0.9375 0.09375 0  0.96875 0.09375 0  1 0.09375 0  1.03125 0.09375 0  1.0625 0.09375 0  1.09375 0.09375 0  1.125 0.09375 0  1.15625 0.09375 0  1.1875 0.09375 0  1.21875 0.09375 0  1.25 0.09375 0  1.28125 0.09375 0  1.3125 0.09375 0  1.34375 0.09375 0  1.375 0.09375 0  1.40625 0.09375 0  1.4375 0.09375 0  1.46875 0.09375 0  1.5 0.09375 0  0 0.125 0  0.03125 0.125 0  0.0625 0.125 0  0.09375 0.125 0  0.125 0.125 0  0.15625 0.125 0  0.1875 0.125 0  0.21875 0.125 0  0.25 0.125 0  0.28125 0.125 0  0.3125 0.125 0  0.34375 0.125 0  0.375 0.125 0  0.40625 0.125 0  0.4375 0.125 0  0.46875 0.125 0  0.5 0.125 0  0.53125 0.125 0  0.5625 0.125 0  0.59375 0.125 0  0.625 0.125 0  0.65625 0.125 0  0.6875 0.125 0  0.71875 0.125 0  0.75 0.125 0  0.78125 0.125 0  0.8125 0.125 0  0.84375 0.125 0  0.875 0.125 0  0.90625 0.125 0  0.9375 0.125 0  0.96875 0.125 0  1 0.125 0  1.03125 0.125 0  1.0625 0.125 0  1.09375 0.125 0  1.125 0.125 0  1.15625 0.125 0  1.1875 0.125 0  1.21875 0.125 0  1.25 0.125 0  1.28125 0.125 0  1.3125 0.125 0  1.34375 0.125 0  1.375 0.125 0  1.40625 0.125 0  1.4375 0.125 0  1.46875 0.125 0  1.5 0.125 0  0 0.15625 0  0.03125 0.15625 0  0.0625 0.15625 0  0.09375 0.15625 0  0.125 0.15625 0  0.15625 0.15625 0  0.1875 0.15625 0  0.21875 0.15625 0  0.25 0.15625 0  0.28125 0.15625 0  0.3125 0.15625 0  0.34375 0.15625 0  0.375 0.15625 0  0.40625 0.15625 0  0.4375 0.15625 0  0.46875 0.15625 0  0.5 0.15625 0  0.53125 0.15625 0  0.5625 0.15625 0  0.59375 0.15625 0  0.625 0.15625 0  0.65625 0.15625 0  0.6875 0.15625 0  0.71875 0.15625 0  0.75 0.15625 0  0.78125 0.15625 0  0.8125 0.15625 0  0.84375 0.15625 0  0.875 0.15625 0  0.90625 0.15625 0  0.9375 0.15625 0  0.96875 0.15625 0  1 0.15625 0  1.03125 0.15625 0  1.0625 0.15625 0  1.09375 0.15625 0  1.125 0.15625 0  1.15625 0.15625 0  1.1875 0.15625 0  1.21875 0.15625 0  1.25 0.15625 0  1.28125 0.15625 0  1.3125 0.15625 0  1.34375 0.15625 0  1.375 0.15625 0  1.40625 0.15625 0  1.4375 0.15625 0  1.46875 0.15625 0  1.5 0.15625 0  0 0.1875 0  0.03125 0.1875 0  0.0625 0.1875 0  0.09375 0.1875 0  0.125 0.1875 0  0.15625 0.1875 0  0.1875 0.1875 0  0.21875 0.1875 0  0.25 0.1875 0  0.28125 0.1875 0  0.3125 0.1875 0  0.34375 0.1875 0  0.375 0.1875 0  0.40625 0.1875 0  0.4375 0.1875 0  0.46875 0.1875 0  0.5 0.1875 0  0.53125 0.1875 0  0.5625 0.1875 0  0.59375 0.1875 0  0.625 0.1875 0  0.65625 0.1875 0  0.6875 0.1875 0  0.71875 0.1875 0  0.75 0.1875 0  0.78125 0.1875 0  0.8125 0.1875 0  0.84375 0.1875 0  0.875 0.1875 0  0.90625 0.1875 0  0.9375 0.1875 0  0.96875 0.1875 0  1 0.1875 0  1.03125 0.1875 0  1.0625 0.1875 0  1.09375 0.1875 0  1.125 0.1875 0  1.15625 0.1875 0  1.1875 0.1875 0  1.21875 0.1875 0  1.25 0.1875 0  1.28125 0.1875 0  1.3125 0.1875 0  1.34375 0.1875 0  1.375 0.1875 0  1.40625 0.1875 0  1.4375 0.1875 0  1.46875 0.1875 0  1.5 0.1875 0  0 0.21875 0  0.03125 0.21875 0  0.0625 0.21875 0  0.09375 0.21875 0  0.125 0.21875 0  0.15625 0.21875 0  0.1875 0.21875 0  0.21875 0.21875 0  0.25 0.21875 0  0.28125 0.21875 0  0.3125 0.21875 0  0.34375 0.21875 0  0.375 0.21875 0  0.40625 0.21875 0  0.4375 0.21875 0  0.46875 0.21875 0  0.5 0.21875 0  0.53125 0.21875 0  0.5625 0.21875 0  0.59375 0.21875 0  0.625 0.21875 0  0.65625 0.21875 0  0.6875 0.21875 0  0.71875 0.21875 0  0.75 0.21875 0  0.78125 0.21875 0  0.8125 0.21875 0  0.84375 0.21875 0  0.875 0.21875 0  0.90625 0.21875 0  0.9375 0.21875 0  0.96875 0.21875 0  1 0.21875 0  1.03125 0.21875 0  1.0625 0.21875 0  1.09375 0.21875 0  1.125 0.21875 0  1.15625 0.21875 0  1.1875 0.21875 0  1.21875 0.21875 0  1.25 0.21875 0  1.28125 0.21875 0  1.3125 0.21875 0  1.34375 0.21875 0  1.375 0.21875 0  1.40625 0.21875 0  1.4375 0.21875 0  1.46875 0.21875 0  1.5 0.21875 0  0 0.25 0  0.03125 0.25 0  0.0625 0.25 0  0.09375 0.25 0  0.125 0.25 0  0.15625 0.25 0  0.1875 0.25 0  0.21875 0.25 0  0.25 0.25 0  0.28125 0.25 0  0.3125 0.25 0  0.34375 0.25 0  0.375 0.25 0  0.40625 0.25 0  0.4375 0.25 0  0.46875 0.25 0  0.5 0.25 0  0.53125 0.25 0  0.5625 0.25 0  0.59375 0.25 0  0.625 0.25 0  0.65625 0.25 0  0.6875 0.25 0  0.71875 0.25 0  0.75 0.25 0  0.78125 0.25 0  0.8125 0.25 0  0.84375 0.25 0  0.875 0.25 0  0.90625 0.25 0  0.9375 0.25 0  0.96875 0.25 0  1 0.25 0  1.03125 0.25 0  1.0625 0.25 0  1.09375 0.25 0  1.125 0.25 0  1.15625 0.25 0  1.1875 0.25 0  1.21875 0.25 0  1.25 0.25 0  1.28125 0.25 0  1.3125 0.25 0  1.34375 0.25 0  1.375 0.25 0  1.40625 0.25 0  1.4375 0.25 0  1.46875 0.25 0  1.5 0.25 0  0 0.28125 0  0.03125 0.28125 0  0.0625 0.28125 0  0.09375 0.28125 0  0.125 0.28125 0  0.15625 0.28125 0  0.1875 0.28125 0  0.21875 0.28125 0  0.25 0.28125 0  0.28125 0.28125 0  0.3125 0.28125 0  0.34375 0.28125 0  0.375 0.28125 0  0.40625 0.28125 0  0.4375 0.28125 0  0.46875 0.28125 0  0.5 0.28125 0  0.53125 0.28125 0  0.5625 0.28125 0  0.59375 0.28125 0  0.625 0.28125 0  0.65625 0.28125 0  0.6875 0.28125 0  0.71875 0.28125 0  0.75 0.28125 0  0.78125 0.28125 0  0.8125 0.28125 0  0.84375 0.28125 0  0.875 0.28125 0  0.90625 0.28125 0  0.9375 0.28125 0  0.96875 0.28125 0  1 0.28125 0  1.03125 0.28125 0  1.0625 0.28125 0  1.09375 0.28125 0  1.125 0.28125 0  1.15625 0.28125 0  1.1875 0.28125 0  1.21875 0.28125 0  1.25 0.28125 0  1.28125 0.28125 0  1.3125 0.28125 0  1.34375 0.28125 0  1.375 0.28125 0  1.40625 0.28125 0  1.4375 0.28125 0  1.46875 0.28125 0  1.5 0.28125 0  0 0.3125 0  0.03125 0.3125 0  0.0625 0.3125 0  0.09375 0.3125 0  0.125 0.3125 0  0.15625 0.3125 0  0.1875 0.3125 0  0.21875 0.3125 0  0.25 0.3125 0  0.28125 0.3125 0  0.3125 0.3125 0  0.34375 0.3125 0  0.375 0.3125 0  0.40625 0.3125 0  0.4375 0.3125 0  0.46875 0.3125 0  0.5 0.3125 0  0.53125 0.3125 0  0.5625 0.3125 0  0.59375 0.3125 0  0.625 0.3125 0  0.65625 0.3125 0  0.6875 0.3125 0  0.71875 0.3125 0  0.75 0.3125 0  0.78125 0.3125 0  0.8125 0.3125 0  0.84375 0.3125 0  0.875 0.3125 0  0.90625 0.3125 0  0.9375 0.3125 0  0.96875 0.3125 0  1 0.3125 0  1.03125 0.3125 0  1.0625 0.3125 0  1.09375 0.3125 0  1.125 0.3125 0  1.15625 0.3125 0  1.1875 0.3125 0  1.21875 0.3125 0  1.25 0.3125 0  1.28125 0.3125 0  1.3125 0.3125 0  1.34375 0.3125 0  1.375 0.3125 0  1.40625 0.3125 0  1.4375 0.3125 0  1.46875 0.3125 0  1.5 0.3125 0  0 0.34375 0  0.03125 0.34375 0  0.0625 0.34375 0  0.09375 0.34375 0  0.125 0.34375 0  0.15625 0.34375 0  0.1875 0.34375 0  0.21875 0.34375 0  0.25 0.34375 0  0.28125 0.34375 0  0.3125 0.34375 0  0.34375 0.34375 0  0.375 0.34375 0  0.40625 0.34375 0  0.4375 0.34375 0  0.46875 0.34375 0  0.5 0.34375 0  0.53125 0.34375 0  0.5625 0.34375 0  0.59375 0.34375 0  0.625 0.34375 0  0.65625 0.34375 0  0.6875 0.34375 0  0.71875 0.34375 0  0.75 0.34375 0  0.78125 0.34375 0  0.8125 0.34375 0  0.84375 0.34375 0  0.875 0.34375 0  0.90625 0.34375 0  0.9375 0.34375 0  0.96875 0.34375 0  1 0.34375 0  1.03125 0.34375 0  1.0625 0.34375 0  1.09375 0.34375 0  1.125 0.34375 0  1.15625 0.34375 0  1.1875 0.34375 0  1.21875 0.34375 0  1.25 0.34375 0  1.28125 0.34375 0  1.3125 0.34375 0  1.34375 0.34375 0  1.375 0.34375 0  1
[...]
<PointData  Vectors="f_17"> 
<DataArray  type="Float64"  Name="f_17"  NumberOfComponents="3" format="ascii">0.0000000000000000e+00 0.0000000000000000e+00 0.0000000000000000e+00  0.0000000000000000e+00 0.0000000000000000e+00 0.0000000000000000e+00  0.0000000000000000e+00 0.0000000000000000e+00 0.0000000000000000e+00  0.0000000000000000e+00 0.0000000000000000e+00 0.0000000000000000e+00  0.0000000000000000e+00 0.0000000000000000e+00 0.0000000000000000e+00  0.0000000000000000e+00 0.0000000000000000e+00 0.0000000000000000e+00  0.0000000000000000e+00 0.0000000000000000e+00 0.0000000000000000e+00  0.0000000000000000e+00 0.0000000000000000e+00 0.0000000000000000e+00  0.0000000000000000e+00 0.0000000000000000e+00 0.0000000000000000e+00  0.0000000000000000e+00 0.0000000000000000e+00 0.0000000000000000e+00  0.0000000000000000e+00 0.0000000000000000e+00 0.0000000000000000e+00  0.0000000000000000e+00 0.0000000000000000e+00 0.0000000000000000e+00  0.0000000000000000e+00 0.0000000000000000e+00 0.0000000000000000e+00  0.0000000000000000e+00 0.0000000000000000e+00 0.0000000000000000e+00  0.0000000000000000e+00 0.0000000000000000e+00 0.0000000000000000e+00  0.0000000000000000e+00 0.0000000000000000e+00 0.0000000000000000e+00  0.0000000000000000e+00 0.0000000000000000e+00 0.0000000000000000e+00  0.0000000000000000e+00 0.0000000000000000e+00 0.0000000000000000e+00  0.0000000000000000e+00 0.0000000000000000e+00 0.0000000000000000e+00  0.0000000000000000e+00 0.0000000000000000e+00 0.0000000000000000e+00  0.0000000000000000e+00 0.0000000000000000e+00 0.0000000000000000e+00  0.0000000000000000e+00 0.0000000000000000e+00 0.0000000000000000e+00  0.0000000000000000e+00 0.0000000000000000e+00 0.0000000000000000e+00  0.0000000000000000e+00 0.0000000000000000e+00 0.0000000000000000e+00  0.0000000000000000e+00 0.0000000000000000e+00 0.0000000000000000e+00  0.0000000000000000e+00 0.0000000000000000e+00 0.0000000000000000e+00  0.0000000000000000e+00 0.0000000000000000e+00 0.0000000000000000e+00  0.0000000000000000e+00 0.0000000000000000e+00 0.0000000000000000e+00  0.0000000000000000e+00 0.0000000000000000e+00 0.0000000000000000e+00  0.0000000000000000e+00 0.0000000000000000e+00 0.0000000000000000e+00  0.0000000000000000e+00 0.0000000000000000e+00 0.0000000000000000e+00  0.0000000000000000e+00 0.0000000000000000e+00 0.0000000000000000e+00  0.0000000000000000e+00 0.0000000000000000e+00 0.0000000000000000e+00  0.0000000000000000e+00 0.0000000000000000e+00 0.0000000000000000e+00  0.0000000000000000e+00 0.0000000000000000e+00 0.0000000000000000e+00  0.0000000000000000e+00 0.0000000000000000e+00 0.0000000000000000e+00  0.0000000000000000e+00 0.0000000000000000e+00 0.0000000000000000e+00  0.0000000000000000e+00 0.0000000000000000e+00 0.0000000000000000e+00  0.0000000000000000e+00 0.0000000000000000e+00 0.0000000000000000e+00  0.0000000000000000e+00 0.0000000000000000e+00 0.0000000000000000e+00  0.0000000000000000e+00 0.0000000000000000e+00 0.0000000000000000e+00  0.0000000000000000e+00 0.0000000000000000e+00 0.0000000000000000e+00  0.0000000000000000e+00 0.0000000000000000e+00 0.0000000000000000e+00  0.0000000000000000e+00 0.0000000000000000e+00 0.0000000000000000e+00  0.0000000000000000e+00 0.0000000000000000e+00 0.0000000000000000e+00  0.0000000000000000e+00 0.0000000000000000e+00 0.0000000000000000e+00  0.0000000000000000e+00 0.0000000000000000e+00 0.0000000000000000e+00  0.0000000000000000e+00 0.0000000000000000e+00 0.0000000000000000e+00  0.0000000000000000e+00 0.0000000000000000e+00 0.0000000000000000e+00  0.0000000000000000e+00 0.0000000000000000e+00 0.0000000000000000e+00  1.0229740686278041e-07 5.2443328420188323e-08 0.0000000000000000e+00  -1.7960183170675269e-07 1.3429591514764884e-07 0.0000000000000000e+00  -1.5590977554574373e-07 3.1227655926042296e-09 0.0000000000000000e+00  -3.7010395679498877e-07 -3.9692487659971996e-08 0.0000000000000000e+00  -3.7002769856671936e-07 -7.1281278556542923e-08 0.0000000000000000e+00  -3.7077412467413077e-07 -7.9861130198755326e-08 0.0000000000000000e+00  -3.7278880977294219e-07 -7.5486960361332192e-08 0.0000000000000000e+00  -3.6136987058246265e-07 -6.7832116881476396e-08 0.0000000000000000e+00  -3.4903274602730776e-07 -5.8480784359234697e-08 0.0000000000000000e+00  -3.3648975956421112e-07 -4.8709321114817092e-08 0.0000000000000000e+00  -3.2550091325870125e-07 -3.9049489150480943e-08 0.0000000000000000e+00  -3.1768813118275390e-07 -2.9675183399829182e-08 0.0000000000000000e+00  -3.1377017141761919e-07 -2.0686234582215947e-08 0.0000000000000000e+00  -3.1428800623275064e-07 -1.2108979315188543e-08 0.0000000000000000e+00  -3.1956652613131763e-07 -3.9302732428535579e-09 0.0000000000000000e+00  -3.2978737790615119e-07 3.8744300887304974e-09 0.0000000000000000e+00  -3.4504033463322020e-07 1.1312318569308164e-08 0.0000000000000000e+00  -3.6531717704431631e-07 1.8340902161152297e-08 0.0000000000000000e+00  -3.9048019353724880e-07 2.4838421886402045e-08 0.0000000000000000e+00  -4.2020245399990082e-07 3.0586108654716705e-08 0.0000000000000000e+00  -4.5389448198627558e-07 3.5271826045184864e-08 0.0000000000000000e+00  -4.9064106316629056e-07 3.8521031686323670e-08 0.0000000000000000e+00  -5.2917018523935923e-07 3.9952848202304249e-08 0.0000000000000000e+00  -5.6787921533925553e-07 3.9249391632175991e-08 0.0000000000000000e+00  -6.0491444187707487e-07 3.6220038209497971e-08 0.0000000000000000e+00  -6.3831458384085665e-07 3.0841488339686736e-08 0.0000000000000000e+00  -6.6614814474141377e-07 2.3264523037877143e-08 0.0000000000000000e+00  -6.8670306606463902e-07 1.3782231844791395e-08 0.0000000000000000e+00  -6.9851288591749276e-07 2.7843507070307879e-09 0.0000000000000000e+00  -7.0059192319742998e-07 -9.3204249740328268e-09 0.0000000000000000e+00  -6.9207639887785399e-07 -2.2117040835701200e-08 0.0000000000000000e+00  -6.7294673137487238e-07 -3.5313358839090645e-08 0.0000000000000000e+00  -6.4240378645360981e-07 -4.8538461710770882e-08 0.0000000000000000e+00  -6.0205599229127541e-07 -6.1826134648960166e-08 0.0000000000000000e+00  -5.4915316163531293e-07 -7.4491869313056327e-08 0.0000000000000000e+00  -4.9044475078144032e-07 -8.7553564020086775e-08 0.0000000000000000e+00  -4.1354355583088502e-07 -9.8256179508737799e-08 0.0000000000000000e+00  -3.4587761850085144e-07 -1.1192306730367115e-07 0.0000000000000000e+00  -2.3389116756755629e-07 -1.1594729759833648e-07 0.0000000000000000e+00  -1.8999617915617010e-07 -1.3559098974433063e-07 0.0000000000000000e+00  9.2423842337120066e-09 -1.1412275639754128e-07 0.0000000000000000e+00  -9.1674039685692256e-08 -1.6565248807041263e-07 0.0000000000000000e+00  4.0840327550783950e-07 -4.4234400992143283e-08 0.0000000000000000e+00  -3.1279358782676416e-07 -2.4445710965815117e-07 0.0000000000000000e+00  1.2288253847326043e-06 2.3741061207471252e-07 0.0000000000000000e+00  -2.3765443921883947e-06 -7.3266708018028514e-07 0.0000000000000000e+00  2.7038118347531544e-06 1.3908394510497780e-06 0.0000000000000000e+00  0.0000000000000000e+00 0.0000000000000000e+00 0.0000000000000000e+00  0.0000000000000000e+00 0.0000000000000000e+00 0.0000000000000000e+00  -1.2063888775291065e-06 7.4461703535782600e-07 0.0000000000000000e+00  7.4997818505597149e-07 3.5096773842528489e-08 0.0000000000000000e+00  -1.8723332856256600e-07 1.5164285243592198e-07 0.0000000000000000e+00  -3.8193249969852556e-07 1.9903936343828339e-08 0.0000000000000000e+00  -4.1120746741653651e-07 -4.2154414034832431e-08 0.0000000000000000e+00  -4.8552560604429652e-07 -7.2776050365805153e-08 0.0000000000000000e+00  -4.9797690825166770e-07 -8.4743716074449957e-08 0.0000000000000000e+00  -4.9740175368639601e-07 -8.5891345709935323e-08 0.0000000000000000e+00  -4.9000099416023394e-07 -8.0352592240737782e-08 0.0000000000000000e+00  -4.7762622193162001e-07 -7.0891168666369247e-08 0.0000000000000000e+00  -4.6551053230341373e-07 -5.9037528189303457e-08 0.0000000000000000e+00  -4.5535188844134734e-07 -4.5794763735800132e-08 0.0000000000000000e+00  -4.4851295232543604e-07 -3.1833132306294625e-08 0.0000000000000000e+00  -4.4591818023814424e-07 -1.7576832759476960e-08 0.0000000000000000e+00  -4.4807536545064863e-07 -3.2884089359336645e-09 0.0000000000000000e+00  -4.5529509900078246e-07 1.0861668551659952e-08 0.0000000000000000e+00  -4.6772241911842420e-07 2.4725761675077013e-08 0.0000000000000000e+00  -4.8536144254680206e-07 3.8103620327311821e-08 0.0000000000000000e+00  -5.0805652761880808e-07 5.0671296977991956e-08 0.0000000000000000e+00  -5.3543194551107706e-07 6.1931837438655949e-08 0.0000000000000000e+00  -5.6681050190189484e-07 7.1208963259946799e-08 0.0000000000000000e+00  -6.0113858737682003e-07 7.7699624501078804e-08 0.0000000000000000e+00  -6.3694952346413463e-07 8.0584196659138618e-08 0.0000000000000000e+00  -6.7240047928278306e-07 7.9170941592334811e-08 0.0000000000000000e+00  -7.0538083115154614e-07 7.3034727209194831e-08 0.0000000000000000e+00  -7.3370089862689039e-07 6.2107132881239305e-08 0.0000000000000000e+00  -7.5527205232069720e-07 4.6693679104736962e-08 0.0000000000000000e+00  -7.6833498014228603e-07 2.7411434357002542e-08 0.0000000000000000e+00  -7.7148799780234626e-07 5.0851247682886670e-09 0.0000000000000000e+00  -7.6393117876568022e-07 -1.9398737065605864e-08 0.0000000000000000e+00  -7.4504879098470558e-07 -4.5161222334509697e-08 0.0000000000000000e+00  -7.1516731992573298e-07 -7.1497947199846666e-08 0.0000000000000000e+00  -6.7379423740169253e-07 -9.7689464550309244e-08 0.0000000000000000e+00  -6.2300324189301022e-07 -1.2346646769215544e-07 0.0000000000000000e+00  -5.6030767432556415e-07 -1.4789098356223668e-07 0.0000000000000000e+00  -4.9316482476667512e-07 -1.7163880923823359e-07 0.0000000000000000e+00  -4.0932961215177851e-07 -1.9176106347944448e-07 0.0000000000000000e+00  -3.3748400267681293e-07 -2.1273498719966286e-07 0.0000000000000000e+00  -2.2409502021239403e-07 -2.2228248328863501e-07 0.0000000000000000e+00  -1.8348334907548347e-07 -2.4253350962213602e-07 0.0000000000000000e+00  6.9034225945474873e-09 -2.2092598235285144e-07 0.0000000000000000e+00  -1.0908481726128273e-07 -2.5883757301146088e-07 0.0000000000000000e+00  3.6014961754308004e-07 -1.3556058386942006e-07 0.0000000000000000e+00  -3.8717161018689222e-07 -2.9387396851512130e-07 0.0000000000000000e+00  1.0325503804940788e-06 1.6054550603570611e-07 0.0000000000000000e+00  -2.4324639637804030e-06 -5.7755567573671466e-07 0.0000000000000000e+00  2.6012876165913509e-06 1.4564062207760233e-06 0.0000000000000000e+00  0.0000000000000000e+00 0.0000000000000000e+00 0.0000000000000000e+00  0.0000000000000000e+00 0.0000000000000000e+00 0.0000000000000000e+00  -2.2562611252444548e-06 1.2348942912764491e-06 0.0000000000000000e+00  1.7288137810074469e-06 -3.8021245995366961e-08 0.0000000000000000e+00  -4.1730358346620930e-07 3.3572737912945398e-07 0.0000000000000000e+00  -5.9635718090992251e-08 6.4505062791703108e-08 0.0000000000000000e+00  -2.2068323232834911e-07 2.0276610641365448e-08 0.0000000000000000e+00  -2.9788774764073962e-07 -4.2996245974412560e-08 0.0000000000000000e+00  -3.3082004178354982e-07 -7.0815004264901339e-08 0.0000000000000000e+00  -3.7105682938333061e-07 -8.2526901007816903e-08 0.0000000000000000e+00  -3.9302764040109226e-07 -8.2788986926302026e-08 0.0000000000000000e+00  -4.0778871265254996e-07 -7.5531663996348695e-08 0.0000000000000000e+00  -4.1816058288254928e-07 -6.3493292504706685e-08 0.0000000000000000e+00  -4.2581869410766790e-07 -4.8452136408819856e-08 0.0000000000000000e+00  -4.3300166188350430e-07 -3.1634507272230841e-08 0.0000000000000000e+00  -4.4095120787758127e-07 -1.3850372743758249e-08 0.0000000000000000e+00  -4.5061413345177497e-07 4.3729979344419626e-09 0.0000000000000000e+00  -4.6266062222739427e-07 2.2688875568344770e-08 0.0000000000000000e+00  -4.7753159167846102e-07 4.0826086916695629e-08 0.0000000000000000e+00  -4.9550093555946565e-07 5.8471086937990583e-08 0.0000000000000000e+00  -5.1666256853852472e-07 7.5150791977828471e-08 0.0000000000000000e+00  -5.4087727205551921e-07 9.0141395230076267e-08 0.0000000000000000e+00  -5.6768362506134655e-07 1.0244199603740692e-07 0.0000000000000000e+00  -5.9620792474754369e-07 1.1084527547507499e-07 0.0000000000000000e+00  -6.2511858540510720e-07 1.1410906180350787e-07 0.0000000000000000e+00  -6.5267428502532630e-07 1.1119139090812552e-07 0.0000000000000000e+00  -6.7686887126905947e-07 1.0147855933763941e-07 0.0000000000000000e+00  -6.9567494934408431e-07 8.4929865416108092e-08 0.0000000000000000e+00  -7.0727400812496863e-07 6.2095324923562095e-08 0.0000000000000000e+00  -7.1031509311127674e-07 3.4002088465835408e-08 0.0000000000000000e+00  -7.0393107481799455e-07 1.9703259897527341e-09 0.0000000000000000e+00  -6.8795727228362086e-07 -3.2615560147687160e-08 0.0000000000000000e+00  -6.6244323764957828e-07 -6.8434971994739907e-08 0.0000000000000000e+00  -6.2840449635061488e-07 -1.0443069347267927e-07 0.0000000000000000e+00  -5.8595624989218646e-07 -1.3961022565658586e-07 0.0000000000000000e+00  -5.3782917091279913e-07 -1.7349926862364313e-07 0.0000000000000000e+00  -4.8199146617296388e-07 -2.0496798874706029e-07 0.0000000000000000e+00  -4.2662669385051184e-07 -2.3449420289742683e-07 0.0000000000000000e+00  -3.5970624775163541e-07 -2.5889346294913496e-07 0.0000000000000000e+00  -3.1091053840673475e-07 -2.8222591435908628e-07 0.0000000000000000e+00  -2.2652162659592732e-07 -2.9212673160358849e-07 0.0000000000000000e+00  -2.2178714196629477e-07 -3.0938716616745141e-07 0.0000000000000000e+00  -7.4599096427580388e-08 -2.8386087985122143e-07 0.0000000000000000e+00  -2.3649754386850167e-07 -3.1076202114844870e-07 0.0000000000000000e+00  1.7153285200319093e-07 -1.8858181615722110e-07 0.0000000000000000e+00  -6.0974045200414597e-07 -3.2295183276865433e-07 0.0000000000000000e+00  7.2397404243543829e-07 8.5001070945622471e-08 0.0000000000000000e+00  -2.6620672632245356e-06 -5.3650631737745843e-07 0.0000000000000000e+00  2.2020982410793961e-06 1.2426749655198892e-06 0.0000000000000000e+00  0.0000000000000000e+00 0.0000000000000000e+00 0.0000000000000000e+00  0.0000000000000000e+00 0.0000000000000000e+00 0.0000000000000000e+00  -2.5042550110371982e-06 1.2900476525148126e-06 0.0000000000000000e+00  2.3556640071557449e-06 -5.2203818292293756e-08 0.0000000000000000e+00  -6.9624835437958497e-07 4.3497987770392977e-07 0.0000000000000000e+00  2.3922866457569608e-07 9.6088971040608462e-08 0.0000000000000000e+00  -2.0328363396318046e-07 1.0857892611613788e-07 0.0000000000000000e+00  -1.6572126757400556e-07 1.1870618192276993e-08 0.0000000000000000e+00  -2.3011470078743684e-07 -2.1630153590417591e-08 0.0000000000000000e+00  -2.7967415166740361e-07 -4.8082233603830602e-08 0.0000000000000000e+00  -3.1163958724120104e-07 -5.7836496233715966e-08 0.0000000000000000e+00  -3.4068105346632691e-07 -5.7649558503806741e-08 0.0000000000000000e+00  -3.6242570330999603e-07 -5.0072549399049960e-08 0.0000000000000000e+00  -3.8029668814583794e-07 -3.7415203233739711e-08 0.0000000000000000e+00  -3.9589681674170131e-07 -2.1414223946418765e-08 0.0000000000000000e+00  -4.1033065360804714e-07 -3.2835921700813960e-09 0.0000000000000000e+00  -4.2465208895534319e-07 1.6113098439071719e-08 0.0000000000000000e+00  -4.3956351759417180e-07 3.6188047126587973e-08 0.0000000000000000e+00  -4.5560422886191279e-07 5.6497052694211114e-08 0.0000000000000000e+00  -4.7317684961056852e-07 7.6587678916306829e-08 0.0000000000000000e+00  -4.9254066656718583e-07 9.5828478805646550e-08 0.0000000000000000e+00  -5.1375359081785981e-07 1.1325784561677113e-07 0.0000000000000000e+00  -5.3655147768025908e-07 1.2751888988276346e-07 0.0000000000000000e+00  -5.6021553948995963e-07 1.3694232328665214e-07 0.0000000000000000e+00  -5.8349316717868286e-07 1.3979610402173587e-07 0.0000000000000000e+00  -6.0465003044936052e-07 1.3464567154547561e-07 0.0000000000000000e+00  -6.2166717005221411e-07 1.2070502362671854e-07 0.0000000000000000e+00  -6.3257308936650225e-07 9.8048248487356531e-08 0.0000000000000000e+00  -6.3575355971408308e-07 6.7609604126875610e-08 0.0000000000000000e+00  -6.3025659471951289e-07 3.0979847188037831e-08 0.0000000000000000e+00  -6.1577678335042023e-07 -9.8998525956598730e-09 0.0000000000000000e+00  -5.9283076012773993e-07 -5.3074892094409342e-08 0.0000000000000000e+00  -5.6213655814395572e-07 -9.6770764169449792e-08 0.0000000000000000e+00  -5.2538333811403001e-07 -1.3960723549102020e-07 0.0000000000000000e+00  -4.8313995640365733e-07 -1.8037947471035722e-07 0.0000000000000000e+00  -4.3869643085418942e-07 -2.1845866536926117e-07 0.0000000000000000e+00  -3.9002344278411040e-07 -2.5259912561071068e-07 0.0000000000000000e+00  -3.4601447776118801e-07 -2.8308930273855210e-07 0.0000000000000000e+00  -2.9366191030422913e-07 -3.0666520199788500e-07 0.0000000000000000e+00  -2.6441935848116959e-07 -3.2692056124588349e-07 0.0000000000000000e+00  -2.0071906473780284e-07 -3.3196614199468699e-07 0.0000000000000000e+00  -2.2341743398116247e-07 -3.4111956967851775e-07 0.0000000000000000e+00  -9.7822296763883510e-08 -3.0826702824463567e-07 0.0000000000000000e+00  -2.9307371156812520e-07 -3.2207978688664238e-07 0.0000000000000000e+00  1.0617125409724135e-07 -2.0155312499976260e-07 0.0000000000000000e+00  -7.0742038476950564e-07 -3.1605628548302722e-07 0.0000000000000000e+00  6.5231548437683197e-07 4.7953281555598873e-08 0.0000000000000000e+00  -2.7297392230893226e-06 -4.9492347270303156e-07 0.0000000000000000e+00  2.1793756604333167e-06 1.0762118320777427e-06 0.0000000000000000e+00  0.0000000000000000e+00 0.0000000000000000e+00 0.0000000000000000e+00  0.0000000000000000e+00 0.0000000000000000e+00 0.0000000000000000e+00  -2.4488125136490717e-06 1.1886140189659176e-06 0.0000000000000000e+00  2.6120240468324868e-06 -2.5071472317770814e-08 0.0000000000000000e+00  -8.1782395762826954e-07 4.5039688885420292e-07 0.0000000000000000e+00  4.7595679890084750e-07 1.2387174580215464e-07 0.0000000000000000e+00  -2.2074349121752183e-07 1.7778874551606714e-07 0.0000000000000000e+00  -1.8555688704580882e-08 6.1816926077241543e-08 0.0000000000000000e+00  -1.4628036693485223e-07 3.3611803610863132e-08 0.0000000000000000e+00  -1.7436769413113578e-07 -5.7114174717396256e-09 0.0000000000000000e+00  -2.1667763740578816e-07 -2.1831186644881138e-08 0.0000000000000000e+00  -2.5353520647669199e-07 -2.8859446153550474e-08 0.0000000000000000e+00  -2.8288873237608043e-07 -2.6284205162294783e-08 0.0000000000000000e+00  -3.0900161961374279e-07 -1.7231928658261267e-08 0.0000000000000000e+00  -3.3159347719013098e-07 -3.5137603524021443e-09 0.0000000000000000e+00  -3.5195415565488613e-07 1.3363385029289268e-08 0.0000000000000000e+00  -3.7091482588793988e-07 3.2281197262670981e-08 0.0000000000000000e+00  -3.8909616086586170e-07 5.2467083950240993e-08 0.0000000000000000e+00  -4.0705839334447675e-07 7.3353024110226478e-08 0.0000000000000000e+00  -4.2526889673028053e-07 9.4411772920448435e-08 0.0000000000000000e+00  -4.4413298720888889e-07 1.1492196357169697e-07 0.0000000000000000e+00  -4.6391387367165107e-07 1.3373167171271453e-07 0.0000000000000000e+00  -4.8456205302111524e-07 1.4912085079323390e-07 0.0000000000000000e+00  -5.0550582234899675e-07 1.5888325529557456e-07 0.0000000000000000e+00  -5.2550529698267599e-07 1.6068356666800867e-07 0.0000000000000000e+00  -5.4270158964905769e-07 1.5260793618792849e-07 0.0000000000000000e+00  -5.5489869167251810e-07 1.3370264842408728e-07 0.0000000000000000e+00  -5.6004238626918120e-07 1.0427517377447999e-07 0.0000000000000000e+00  -5.5666154687262208e-07 6.5843342851783795e-08 0.0000000000000000e+00  -5.4423109240127195e-07 2.0772237260601146e-08 0.0000000000000000e+00  -5.2309721403092747e-07 -2.8221663378020621e-08 0.0000000000000000e+00  -4.9455085113768384e-07 -7.8554713555019631e-08 0.0000000000000000e+00  -4.6003727270484506e-07 -1.2803547679288398e-07 0.0000000000000000e+00  -4.2189335604573382e-07 -1.7507072796345798e-07 0.0000000000000000e+00  -3.8107173829817202e-07 -2.1838990954848864e-07 0.0000000000000000e+00  -3.4122209352937389e-07 -2.5737382770660361