<?xml version="1.0"?>
<VTKFile type="UnstructuredGrid"  version="0.1"  >
<UnstructuredGrid>
<Piece  NumberOfPoints="1617" NumberOfCells="3072">
<Points>
<DataArray  type="Float64"  NumberOfComponents="3"  format="ascii">0 0 0  0.03125 0 0  0.0625 0 0  0.09375 0 0  0.125 0 0  0.15625 0 0  0.1875 0 0  0.21875 0 0  0.25 0 0  0.28125 0 0  0.3125 0 0  0.34375 0 0  0.375 0 0  0.40625 0 0  0.4375 0 0  0.46875 0 0  0.5 0 0  0.53125 0 0  0.5625 0 0  0.59375 0 0  0.625 0 0  0.65625 0 0  0.6875 0 0  0.71875 0 0  0.75 0 0  0.78125 0 0  0.8125 0 0  0.84375 0 0  0.875 0 0  0.90625 0 0  0.9375 0 0  0.96875 0 0  1 0 0  1.03125 0 0  1.0625 0 0  1.09375 0 0  1.125 0 0  1.15625 0 0  1.1875 0 0  1.21875 0 0  1.25 0 0  1.28125 0 0  1.3125 0 0  1.34375 0 0  1.375 0 0  1.40625 0 0  1.4375 0 0  1.46875 0 0  1.5 0 0  0 0.03125 0  0.03125 0.03125 0  0.0625 0.03125 0  0.09375 0.03125 0  0.125 0.03125 0  0.15625 0.03125 0  0.1875 0.03125 0  0.21875 0.03125 0  0.25 0.03125 0  0.28125 0.03125 0  0.3125 0.03125 0  0.34375 0.03125 0  0.375 0.03125 0  0.40625 0.03125 0  0.4375 0.03125 0  0.46875 0.03125 0  0.5 0.03125 0  0.53125 0.03125 0  0.5625 0.03125 0  0.59375 0.03125 0  0.625 0.03125 0  0.65625 0.03125 0  0.6875 0.03125 0  0.71875 0.03125 0  0.75 0.03125 0  0.78125 0.03125 0  0.8125 0.03125 0  0.84375 0.03125 0  0.875 0.03125 0  0.90625 0.03125 0  0.9375 0.03125 0  0.96875 0.03125 0  1 0.03125 0  1.03125 0.03125 0  1.0625 0.03125 0  1.09375 0.03125 0  1.125 0.03125 0  1.15625 0.03125 0  1.1875 0.03125 0  1.21875 0.03125 0  1.25 0.03125 0  1.28125 0.03125 0  1.3125 0.03125 0  1.34375 0.03125 0  1.375 0.03125 0  1.40625 0.03125 0  1.4375 0.03125 0  1.46875 0.03125 0  1.5 0.03125 0  0 0.0625 0  0.03125 0.0625 0  0.0625 0.0625 0  0.09375 0.0625 0  0.125 0.0625 0  0.15625 0.0625 0  0.1875 0.0625 0  0.21875 0.0625 0  0.25 0.0625 0  0.28125 0.0625 0  0.3125 0.0625 0  0.34375 0.0625 0  0.375 0.0625 0  0.40625 0.0625 0  0.4375 0.0625 0  0.46875 0.0625 0  0.5 0.0625 0  0.53125 0.0625 0  0.5625 0.0625 0  0.59375 0.0625 0  0.625 0.0625 0  0.65625 0.0625 0  0.6875 0.0625 0  0.71875 0.0625 0  0.75 0.0625 0  0.78125 0.0625 0  0.8125 0.0625 0  0.84375 0.0625 0  0.875 0.0625 0  0.90625 0.0625 0  0.9375 0.0625 0  0.96875 0.0625 0  1 0.0625 0  1.03125 0.0625 0  1.0625 0.0625 0  1.09375 0.0625 0  1.125 0.0625 0  1.15625 0.0625 0  1.1875 0.0625 0  1.21875 0.0625 0  1.25 0.0625 0  1.28125 0.0625 0  1.3125 0.0625 0  1.34375 0.0625 0  1.375 0.0625 0  1.40625 0.0625 0  1.4375 0.0625 0  1.46875 0.0625 0  1.5 0.0625 0  0 0.09375 0  0.03125 0.09375 0  0.0625 0.09375 0  0.09375 0.09375 0  0.125 0.09375 0  0.15625 0.09375 0  0.1875 0.09375 0  0.21875 0.09375 0  0.25 0.09375 0  0.28125 0.09375 0  0.3125 0.09375 0  0.34375 0.09375 0  0.375 0.09375 0  0.40625 0.09375 0  0.4375 0.09375 0  0.46875 0.09375 0  0.5 0.09375 0  0.53125 0.09375 0  0.5625 0.09375 0  0.59375 0.09375 0  0.625 0.09375 0  0.65625 0.09375 0  0.6875 0.09375 0  0.71875 0.09375 0  0.75 0.09375 0  0.78125 0.09375 0  0.8125 0.09375 0  0.84375 0.09375 0  0.875 0.09375 0  0.90625 0.09375 0  0.9375 0.09375 0  0.96875 0.09375 0  1 0.09375 0  1.03125 0.09375 0  1.0625 0.09375 0  1.09375 0.09375 0  1.125 0.09375 0  1.15625 0.09375 0  1.1875 0.09375 0  1.21875 0.09375 0  1.25 0.09375 0  1.28125 0.09375 0  1.3125 0.09375 0  1.34375 0.09375 0  1.375 0.09375 0  1.40625 0.09375 0  1.4375 0.09375 0  1.46875 0.09375 0  1.5 0.09375 0  0 0.125 0  0.03125 0.125 0  0.0625 0.125 0  0.09375 0.125 0  0.125 0.125 0  0.15625 0.125 0  0.1875 0.125 0  0.21875 0.125 0  0.25 0.125 0  0.28125 0.125 0  0.3125 0.125 0  0.34375 0.125 0  0.375 0.125 0  0.40625 0.125 0  0.4375 0.125 0  0.46875 0.125 0  0.5 0.125 0  0.53125 0.125 0  0.5625 0.125 0  0.59375 0.125 0  0.625 0.125 0  0.65625 0.125 0  0.6875 0.125 0  0.71875 0.125 0  0.75 0.125 0  0.78125 0.125 0  0.8125 0.125 0  0.84375 0.125 0  0.875 0.125 0  0.90625 0.125 0  0.9375 0.125 0  0.96875 0.125 0  1 0.125 0  1.03125 0.125 0  1.0625 0.125 0  1.09375 0.125 0  1.125 0.125 0  1.15625 0.125 0  1.1875 0.125 0  1.21875 0.125 0  1.25 0.125 0  1.28125 0.125 0  1.3125 0.125 0  1.34375 0.125 0  1.375 0.125 0  1.40625 0.125 0  1.4375 0.125 0  1.46875 0.125 0  1.5 0.125 0  0 0.15625 0  0.03125 0.15625 0  0.0625 0.15625 0  0.09375 0.15625 0  0.125 0.15625 0  0.15625 0.15625 0  0.1875 0.15625 0  0.21875 0.15625 0  0.25 0.15625 0  0.28125 0.15625 0  0.3125 0.15625 0  0.34375 0.15625 0  0.375 0.15625 0  0.40625 0.15625 0  0.4375 0.15625 0  0.46875 0.15625 0  0.5 0.15625 0  0.53125 0.15625 0  0.5625 0.15625 0  0.59375 0.15625 0  0.625 0.15625 0  0.65625 0.15625 0  0.6875 0.15625 0  0.71875 0.15625 0  0.75 0.15625 0  0.78125 0.15625 0  0.8125 0.15625 0  0.84375 0.15625 0  0.875 0.15625 0  0.90625 0.15625 0  0.9375 0.15625 0  0.96875 0.15625 0  1 0.15625 0  1.03125 0.15625 0  1.0625 0.15625 0  1.09375 0.15625 0  1.125 0.15625 0  1.15625 0.15625 0  1.1875 0.15625 0  1.21875 0.15625 0  1.25 0.15625 0  1.28125 0.15625 0  1.3125 0.15625 0  1.34375 0.15625 0  1.375 0.15625 0  1.40625 0.15625 0  1.4375 0.15625 0  1.46875 0.15625 0  1.5 0.15625 0  0 0.1875 0  0.03125 0.1875 0  0.0625 0.1875 0  0.09375 0.1875 0  0.125 0.1875 0  0.15625 0.1875 0  0.1875 0.1875 0  0.21875 0.1875 0  0.25 0.1875 0  0.28125 0.1875 0  0.3125 0.1875 0  0.34375 0.1875 0  0.375 0.1875 0  0.40625 0.1875 0  0.4375 0.1875 0  0.46875 0.1875 0  0.5 0.1875 0  0.53125 0.1875 0  0.5625 0.1875 0  0.59375 0.1875 0  0.625 0.1875 0  0.65625 0.1875 0  0.6875 0.1875 0  0.71875 0.1875 0  0.75 0.1875 0  0.78125 0.1875 0  0.8125 0.1875 0  0.84375 0.1875 0  0.875 0.1875 0  0.90625 0.1875 0  0.9375 0.1875 0  0.96875 0.1875 0  1 0.1875 0  1.03125 0.1875 0  1.0625 0.1875 0  1.09375 0.1875 0  1.125 0.1875 0  1.15625 0.1875 0  1.1875 0.1875 0  1.21875 0.1875 0  1.25 0.1875 0  1.28125 0.1875 0  1.3125 0.1875 0  1.34375 0.1875 0  1.375 0.1875 0  1.40625 0.1875 0  1.4375 0.1875 0  1.46875 0.1875 0  1.5 0.1875 0  0 0.21875 0  0.03125 0.21875 0  0.0625 0.21875 0  0.09375 0.21875 0  0.125 0.21875 0  0.15625 0.21875 0  0.1875 0.21875 0  0.21875 0.21875 0  0.25 0.21875 0  0.28125 0.21875 0  0.3125 0.21875 0  0.34375 0.21875 0  0.375 0.21875 0  0.40625 0.21875 0  0.4375 0.21875 0  0.46875 0.21875 0  0.5 0.21875 0  0.53125 0.21875 0  0.5625 0.21875 0  0.59375 0.21875 0  0.625 0.21875 0  0.65625 0.21875 0  0.6875 0.21875 0  0.71875 0.21875 0  0.75 0.21875 0  0.78125 0.21875 0  0.8125 0.21875 0  0.84375 0.21875 0  0.875 0.21875 0  0.90625 0.21875 0  0.9375 0.21875 0  0.96875 0.21875 0  1 0.21875 0  1.03125 0.21875 0  1.0625 0.21875 0  1.09375 0.21875 0  1.125 0.21875 0  1.15625 0.21875 0  1.1875 0.21875 0  1.21875 0.21875 0  1.25 0.21875 0  1.28125 0.21875 0  1.3125 0.21875 0  1.34375 0.21875 0  1.375 0.21875 0  1.40625 0.21875 0  1.4375 0.21875 0  1.46875 0.21875 0  1.5 0.21875 0  0 0.25 0  0.03125 0.25 0  0.0625 0.25 0  0.09375 0.25 0  0.125 0.25 0  0.15625 0.25 0  0.1875 0.25 0  0.21875 0.25 0  0.25 0.25 0  0.28125 0.25 0  0.3125 0.25 0  0.34375 0.25 0  0.375 0.25 0  0.40625 0.25 0  0.4375 0.25 0  0.46875 0.25 0  0.5 0.25 0  0.53125 0.25 0  0.5625 0.25 0  0.59375 0.25 0  0.625 0.25 0  0.65625 0.25 0  0.6875 0.25 0  0.71875 0.25 0  0.75 0.25 0  0.78125 0.25 0  0.8125 0.25 0  0.84375 0.25 0  0.875 0.25 0  0.90625 0.25 0  0.9375 0.25 0  0.96875 0.25 0  1 0.25 0  1.03125 0.25 0  1.0625 0.25 0  1.09375 0.25 0  1.125 0.25 0  1.15625 0.25 0  1.1875 0.25 0  1.21875 0.25 0  1.25 0.25 0  1.28125 0.25 0  1.3125 0.25 0  1.34375 0.25 0  1.375 0.25 0  1.40625 0.25 0  1.4375 0.25 0  1.46875 0.25 0  1.5 0.25 0  0 0.28125 0  0.03125 0.28125 0  0.0625 0.28125 0  0.09375 0.28125 0  0.125 0.28125 0  0.15625 0.28125 0  0.1875 0.28125 0  0.21875 0.28125 0  0.25 0.28125 0  0.28125 0.28125 0  0.3125 0.28125 0  0.34375 0.28125 0  0.375 0.28125 0  0.40625 0.28125 0  0.4375 0.28125 0  0.46875 0.28125 0  0.5 0.28125 0  0.53125 0.28125 0  0.5625 0.28125 0  0.59375 0.28125 0  0.625 0.28125 0  0.65625 0.28125 0  0.6875 0.28125 0  0.71875 0.28125 0  0.75 0.28125 0  0.78125 0.28125 0  0.8125 0.28125 0  0.84375 0.28125 0  0.875 0.28125 0  0.90625 0.28125 0  0.9375 0.28125 0  0.96875 0.28125 0  1 0.28125 0  1.03125 0.28125 0  1.0625 0.28125 0  1.09375 0.28125 0  1.125 0.28125 0  1.15625 0.28125 0  1.1875 0.28125 0  1.21875 0.28125 0  1.25 0.28125 0  1.28125 0.28125 0  1.3125 0.28125 0  1.34375 0.28125 0  1.375 0.28125 0  1.40625 0.28125 0  1.4375 0.28125 0  1.46875 0.28125 0  1.5 0.28125 0  0 0.3125 0  0.03125 0.3125 0  0.0625 0.3125 0  0.09375 0.3125 0  0.125 0.3125 0  0.15625 0.3125 0  0.1875 0.3125 0  0.21875 0.3125 0  0.25 0.3125 0  0.28125 0.3125 0  0.3125 0.3125 0  0.34375 0.3125 0  0.375 0.3125 0  0.40625 0.3125 0  0.4375 0.3125 0  0.46875 0.3125 0  0.5 0.3125 0  0.53125 0.3125 0  0.5625 0.3125 0  0.59375 0.3125 0  0.625 0.3125 0  0.65625 0.3125 0  0.6875 0.3125 0  0.71875 0.3125 0  0.75 0.3125 0  0.78125 0.3125 0  0.8125 0.3125 0  0.84375 0.3125 0  0.875 0.3125 0  0.90625 0.3125 0  0.9375 0.3125 0  0.96875 0.3125 0  1 0.3125 0  1.03125 0.3125 0  1.0625 0.3125 0  1.09375 0.3125 0  1.125 0.3125 0  1.15625 0.3125 0  1.1875 0.3125 0  1.21875 0.3125 0  1.25 0.3125 0  1.28125 0.3125 0  1.3125 0.3125 0  1.34375 0.3125 0  1.375 0.3125 0  1.40625 0.3125 0  1.4375 0.3125 0  1.46875 0.3125 0  1.5 0.3125 0  0 0.34375 0  0.03125 0.34375 0  0.0625 0.34375 0  0.09375 0.34375 0  0.125 0.34375 0  0.15625 0.34375 0  0.1875 0.34375 0  0.21875 0.34375 0  0.25 0.34375 0  0.28125 0.34375 0  0.3125 0.34375 0  0.34375 0.34375 0  0.375 0.34375 0  0.40625 0.34375 0  0.4375 0.34375 0  0.46875 0.34375 0  0.5 0.34375 0  0.53125 0.34375 0  0.5625 0.34375 0  0.59375 0.34375 0  0.625 0.34375 0  0.65625 0.34375 0  0.6875 0.34375 0  0.71875 0.34375 0  0.75 0.34375 0  0.78125 0.34375 0  0.8125 0.34375 0  0.84375 0.34375 0  0.875 0.34375 0  0.90625 0.34375 0  0.9375 0.34375 0  0.96875 0.34375 0  1 0.34375 0  1.03125 0.34375 0  1.0625 0.34375 0  1.09375 0.34375 0  1.125 0.34375 0  1.15625 0.34375 0  1.1875 0.34375 0  1.21875 0.34375 0  1.25 0.34375 0  1.28125 0.34375 0  1.3125 0.34375 0  1.34375 0.34375 0  1.375 0.34375 0  1
[...]
<PointData  Vectors="f_17"> 
<DataArray  type="Float64"  Name="f_17"  NumberOfComponents="3" format="ascii">0.0000000000000000e+00 0.0000000000000000e+00 0.0000000000000000e+00  0.0000000000000000e+00 0.0000000000000000e+00 0.0000000000000000e+00  0.0000000000000000e+00 0.0000000000000000e+00 0.0000000000000000e+00  0.0000000000000000e+00 0.0000000000000000e+00 0.0000000000000000e+00  0.0000000000000000e+00 0.0000000000000000e+00 0.0000000000000000e+00  0.0000000000000000e+00 0.0000000000000000e+00 0.0000000000000000e+00  0.0000000000000000e+00 0.0000000000000000e+00 0.0000000000000000e+00  0.0000000000000000e+00 0.0000000000000000e+00 0.0000000000000000e+00  0.0000000000000000e+00 0.0000000000000000e+00 0.0000000000000000e+00  0.0000000000000000e+00 0.0000000000000000e+00 0.0000000000000000e+00  0.0000000000000000e+00 0.0000000000000000e+00 0.0000000000000000e+00  0.0000000000000000e+00 0.0000000000000000e+00 0.0000000000000000e+00  0.0000000000000000e+00 0.0000000000000000e+00 0.0000000000000000e+00  0.0000000000000000e+00 0.0000000000000000e+00 0.0000000000000000e+00  0.0000000000000000e+00 0.0000000000000000e+00 0.0000000000000000e+00  0.0000000000000000e+00 0.0000000000000000e+00 0.0000000000000000e+00  0.0000000000000000e+00 0.0000000000000000e+00 0.0000000000000000e+00  0.0000000000000000e+00 0.0000000000000000e+00 0.0000000000000000e+00  0.0000000000000000e+00 0.0000000000000000e+00 0.0000000000000000e+00  0.0000000000000000e+00 0.0000000000000000e+00 0.0000000000000000e+00  0.0000000000000000e+00 0.0000000000000000e+00 0.0000000000000000e+00  0.0000000000000000e+00 0.0000000000000000e+00 0.0000000000000000e+00  0.0000000000000000e+00 0.0000000000000000e+00 0.0000000000000000e+00  0.0000000000000000e+00 0.0000000000000000e+00 0.0000000000000000e+00  0.0000000000000000e+00 0.0000000000000000e+00 0.0000000000000000e+00  0.0000000000000000e+00 0.0000000000000000e+00 0.0000000000000000e+00  0.0000000000000000e+00 0.0000000000000000e+00 0.0000000000000000e+00  0.0000000000000000e+00 0.0000000000000000e+00 0.0000000000000000e+00  0.0000000000000000e+00 0.0000000000000000e+00 0.0000000000000000e+00  0.0000000000000000e+00 0.0000000000000000e+00 0.0000000000000000e+00  0.0000000000000000e+00 0.0000000000000000e+00 0.0000000000000000e+00  0.0000000000000000e+00 0.0000000000000000e+00 0.0000000000000000e+00  0.0000000000000000e+00 0.0000000000000000e+00 0.0000000000000000e+00  0.0000000000000000e+00 0.0000000000000000e+00 0.0000000000000000e+00  0.0000000000000000e+00 0.0000000000000000e+00 0.0000000000000000e+00  0.0000000000000000e+00 0.0000000000000000e+00 0.0000000000000000e+00  0.0000000000000000e+00 0.0000000000000000e+00 0.0000000000000000e+00  0.0000000000000000e+00 0.0000000000000000e+00 0.0000000000000000e+00  0.0000000000000000e+00 0.0000000000000000e+00 0.0000000000000000e+00  0.0000000000000000e+00 0.0000000000000000e+00 0.0000000000000000e+00  0.0000000000000000e+00 0.0000000000000000e+00 0.0000000000000000e+00  0.0000000000000000e+00 0.0000000000000000e+00 0.0000000000000000e+00  0.0000000000000000e+00 0.0000000000000000e+00 0.0000000000000000e+00  0.0000000000000000e+00 0.0000000000000000e+00 0.0000000000000000e+00  0.0000000000000000e+00 0.0000000000000000e+00 0.0000000000000000e+00  0.0000000000000000e+00 0.0000000000000000e+00 0.0000000000000000e+00  0.0000000000000000e+00 0.0000000000000000e+00 0.0000000000000000e+00  0.0000000000000000e+00 0.0000000000000000e+00 0.0000000000000000e+00  0.0000000000000000e+00 0.0000000000000000e+00 0.0000000000000000e+00  0.0000000000000000e+00 0.0000000000000000e+00 0.0000000000000000e+00  1.1722790422978322e-07 -7.7582529405839928e-08 0.0000000000000000e+00  -1.2839882412349349e-07 7.9040615812806059e-08 0.0000000000000000e+00  -1.5968659680625830e-08 -1.8607622169571938e-08 0.0000000000000000e+00  -1.9712458385212924e-07 -4.8161723498109040e-08 0.0000000000000000e+00  -1.8029424989754530e-07 -7.2270707530259296e-08 0.0000000000000000e+00  -1.6954070544643979e-07 -7.6713715133557170e-08 0.0000000000000000e+00  -1.6315701093344076e-07 -6.9693364774045294e-08 0.0000000000000000e+00  -1.4604318327398621e-07 -6.0446446502838939e-08 0.0000000000000000e+00  -1.2996395540364120e-07 -5.0271560820134040e-08 0.0000000000000000e+00  -1.1503005938370933e-07 -4.0270274403005515e-08 0.0000000000000000e+00  -1.0247831479008882e-07 -3.0833371688978556e-08 0.0000000000000000e+00  -9.3489692407587655e-08 -2.2017244008538065e-08 0.0000000000000000e+00  -8.8454888002206558e-08 -1.3819749384570170e-08 0.0000000000000000e+00  -8.7671739841403697e-08 -6.1733210491066721e-09 0.0000000000000000e+00  -9.1307939957133787e-08 1.0225856024033056e-09 0.0000000000000000e+00  -9.9468170490645789e-08 7.8745646668703341e-09 0.0000000000000000e+00  -1.1224028924328199e-07 1.4466555282454846e-08 0.0000000000000000e+00  -1.2968535715602541e-07 2.0826452674000242e-08 0.0000000000000000e+00  -1.5180107902187761e-07 2.6894874058823847e-08 0.0000000000000000e+00  -1.7845564141193292e-07 3.2505434787664678e-08 0.0000000000000000e+00  -2.0930566085463964e-07 3.7386550415636154e-08 0.0000000000000000e+00  -2.4372160517066969e-07 4.1191130998421005e-08 0.0000000000000000e+00  -2.8074308879838053e-07 4.3552152520205378e-08 0.0000000000000000e+00  -3.1908993300147310e-07 4.4152140107155983e-08 0.0000000000000000e+00  -3.5722634999250384e-07 4.2787938310945172e-08 0.0000000000000000e+00  -3.9348937728557925e-07 3.9411436215903551e-08 0.0000000000000000e+00  -4.2621271318277176e-07 3.4137192386450396e-08 0.0000000000000000e+00  -4.5390351706156226e-07 2.7212013124250363e-08 0.0000000000000000e+00  -4.7525977669850351e-07 1.8971143558587300e-08 0.0000000000000000e+00  -4.8939578309385282e-07 9.7629058194816760e-09 0.0000000000000000e+00  -4.9548393524306375e-07 -6.1984047500276087e-11 0.0000000000000000e+00  -4.9346575341049110e-07 -1.0278003313379758e-08 0.0000000000000000e+00  -4.8244664178661051e-07 -2.0583638971242505e-08 0.0000000000000000e+00  -4.6384581009646489e-07 -3.1084679011131188e-08 0.0000000000000000e+00  -4.3469757079563459e-07 -4.1176413948528181e-08 0.0000000000000000e+00  -4.0136837906975221e-07 -5.1962947295969213e-08 0.0000000000000000e+00  -3.5116595470650407e-07 -6.0797271153996905e-08 0.0000000000000000e+00  -3.1079347216091396e-07 -7.3121111797217685e-08 0.0000000000000000e+00  -2.2642857416672876e-07 -7.6506295478975276e-08 0.0000000000000000e+00  -2.0908316773263606e-07 -9.6403318146208893e-08 0.0000000000000000e+00  -3.5381317827310628e-08 -7.6462512053512396e-08 0.0000000000000000e+00  -1.5887844938188148e-07 -1.3125308603469535e-07 0.0000000000000000e+00  3.2250455477719597e-07 -1.5671171944859863e-08 0.0000000000000000e+00  -4.1805977766762021e-07 -2.2756283762423194e-07 0.0000000000000000e+00  1.1445253159896566e-06 2.4058633210901049e-07 0.0000000000000000e+00  -2.3949796904933410e-06 -7.6103460867687522e-07 0.0000000000000000e+00  2.9235604722542001e-06 1.2945160948842524e-06 0.0000000000000000e+00  0.0000000000000000e+00 0.0000000000000000e+00 0.0000000000000000e+00  0.0000000000000000e+00 0.0000000000000000e+00 0.0000000000000000e+00  -1.3240960611672947e-06 5.6491753523585618e-07 0.0000000000000000e+00  7.8106059479022183e-07 -8.0587433720032521e-08 0.0000000000000000e+00  -5.2932026863401120e-08 8.5916603902334170e-08 0.0000000000000000e+00  -1.9259345346411599e-07 -2.2013050858726230e-08 0.0000000000000000e+00  -1.9657058080915287e-07 -6.6874408192174085e-08 0.0000000000000000e+00  -2.5049613403450069e-07 -8.6598622974888387e-08 0.0000000000000000e+00  -2.4779127202532499e-07 -9.0966138461861701e-08 0.0000000000000000e+00  -2.3640397053192957e-07 -8.6858983576053107e-08 0.0000000000000000e+00  -2.2149333338340957e-07 -7.7823158183984899e-08 0.0000000000000000e+00  -2.0403758224085327e-07 -6.6263012740275647e-08 0.0000000000000000e+00  -1.8845060036870402e-07 -5.3415684499703188e-08 0.0000000000000000e+00  -1.7580864277877907e-07 -4.0041866652994235e-08 0.0000000000000000e+00  -1.6696521132018760e-07 -2.6592460801766701e-08 0.0000000000000000e+00  -1.6245307838344490e-07 -1.3288949380195291e-08 0.0000000000000000e+00  -1.6250434746433290e-07 -2.0409882619905058e-10 0.0000000000000000e+00  -1.6726043224268157e-07 1.2671826526767206e-08 0.0000000000000000e+00  -1.7680128049425358e-07 2.5362219418113197e-08 0.0000000000000000e+00  -1.9116528852945114e-07 3.7827629172220959e-08 0.0000000000000000e+00  -2.1032517034197672e-07 4.9891692968811253e-08 0.0000000000000000e+00  -2.3412028746352125e-07 6.1187159406938449e-08 0.0000000000000000e+00  -2.6216428065693231e-07 7.1144017283602910e-08 0.0000000000000000e+00  -2.9375496217189421e-07 7.9036664142109292e-08 0.0000000000000000e+00  -3.2781876082956928e-07 8.4089894409051182e-08 0.0000000000000000e+00  -3.6292622863097830e-07 8.5620845093707867e-08 0.0000000000000000e+00  -3.9737831680021030e-07 8.3176948407659581e-08 0.0000000000000000e+00  -4.2937298650878598e-07 7.6627069610028947e-08 0.0000000000000000e+00  -4.5716472870724090e-07 6.6181815162251008e-08 0.0000000000000000e+00  -4.7927255227495650e-07 5.2336544875258032e-08 0.0000000000000000e+00  -4.9449349498485505e-07 3.5774751603135340e-08 0.0000000000000000e+00  -5.0213131634293581e-07 1.7230279791359496e-08 0.0000000000000000e+00  -5.0157901673208263e-07 -2.5751848895344701e-09 0.0000000000000000e+00  -4.9306211833524791e-07 -2.3094531642071788e-08 0.0000000000000000e+00  -4.7590453776515489e-07 -4.3765256578827413e-08 0.0000000000000000e+00  -4.5186637735023946e-07 -6.4477214432071173e-08 0.0000000000000000e+00  -4.1811214537480385e-07 -8.4461072383149041e-08 0.0000000000000000e+00  -3.8152958233065426e-07 -1.0457979741163123e-07 0.0000000000000000e+00  -3.2941747993839377e-07 -1.2210302874882928e-07 0.0000000000000000e+00  -2.8945607987509919e-07 -1.4178006098617399e-07 0.0000000000000000e+00  -2.0775777494611508e-07 -1.5167266880463069e-07 0.0000000000000000e+00  -1.9671275779147345e-07 -1.7439621496482651e-07 0.0000000000000000e+00  -3.4204482384279083e-08 -1.5803162602219741e-07 0.0000000000000000e+00  -1.7278601924069271e-07 -2.0502168486756218e-07 0.0000000000000000e+00  2.7789700494169084e-07 -9.6144331372749514e-08 0.0000000000000000e+00  -4.8266046040751706e-07 -2.7774560109137007e-07 0.0000000000000000e+00  9.6749339097015025e-07 1.4717159969025527e-07 0.0000000000000000e+00  -2.4198533576419142e-06 -6.4338861921652424e-07 0.0000000000000000e+00  2.7827259355089209e-06 1.3033819602748760e-06 0.0000000000000000e+00  0.0000000000000000e+00 0.0000000000000000e+00 0.0000000000000000e+00  0.0000000000000000e+00 0.0000000000000000e+00 0.0000000000000000e+00  -2.4389419581164670e-06 1.0208912470793765e-06 0.0000000000000000e+00  1.7085371179045826e-06 -1.9845268268044872e-07 0.0000000000000000e+00  -3.4495962195517051e-07 2.2658396514428697e-07 0.0000000000000000e+00  7.4434412330751744e-08 -1.4289314611125780e-08 0.0000000000000000e+00  -5.8764104599304089e-08 -3.2725451636862889e-08 0.0000000000000000e+00  -1.0965702867967248e-07 -7.8365184978919411e-08 0.0000000000000000e+00  -1.2191423572134088e-07 -9.3211077234738996e-08 0.0000000000000000e+00  -1.4601071627635585e-07 -9.5504260015822056e-08 0.0000000000000000e+00  -1.5573834446307613e-07 -8.9122683952071609e-08 0.0000000000000000e+00  -1.6119444168731649e-07 -7.7471437489254624e-08 0.0000000000000000e+00  -1.6441488366141272e-07 -6.2868100227986140e-08 0.0000000000000000e+00  -1.6641093317276954e-07 -4.6726288923342473e-08 0.0000000000000000e+00  -1.6883901859502728e-07 -2.9934018153047036e-08 0.0000000000000000e+00  -1.7248715044988950e-07 -1.2986107306300430e-08 0.0000000000000000e+00  -1.7795693732345279e-07 3.8905221962601235e-09 0.0000000000000000e+00  -1.8568625721564497e-07 2.0637580483650255e-08 0.0000000000000000e+00  -1.9599551482448465e-07 3.7261352208281992e-08 0.0000000000000000e+00  -2.0914680181504372e-07 5.3713484456592185e-08 0.0000000000000000e+00  -2.2532744379065383e-07 6.9768905273899043e-08 0.0000000000000000e+00  -2.4458927708728094e-07 8.4926377063222797e-08 0.0000000000000000e+00  -2.6674702313600059e-07 9.8371458243722039e-08 0.0000000000000000e+00  -2.9127007055744956e-07 1.0903617390689982e-07 0.0000000000000000e+00  -3.1721445583917765e-07 1.1576141295167086e-07 0.0000000000000000e+00  -3.4324688510061416e-07 1.1752591761848055e-07 0.0000000000000000e+00  -3.6776633261507398e-07 1.1367166887173011e-07 0.0000000000000000e+00  -3.8912528695578143e-07 1.0404965157717526e-07 0.0000000000000000e+00  -4.0583842148462331e-07 8.9043037762673548e-08 0.0000000000000000e+00  -4.1681868194827729e-07 6.9464151569685877e-08 0.0000000000000000e+00  -4.2137472940449674e-07 4.6385005423358449e-08 0.0000000000000000e+00  -4.1941111280287853e-07 2.0924791596007113e-08 0.0000000000000000e+00  -4.1093716050764587e-07 -5.8643143190673293e-09 0.0000000000000000e+00  -3.9680657750588957e-07 -3.3187678088084699e-08 0.0000000000000000e+00  -3.7687638837577012e-07 -6.0308361799980279e-08 0.0000000000000000e+00  -3.5348742575169838e-07 -8.7004543546059126e-08 0.0000000000000000e+00  -3.2416931044287696e-07 -1.1240862893224934e-07 0.0000000000000000e+00  -2.9646979589732770e-07 -1.3728270935295522e-07 0.0000000000000000e+00  -2.5780694699674236e-07 -1.5877422015059554e-07 0.0000000000000000e+00  -2.3685810803693438e-07 -1.8134080754382739e-07 0.0000000000000000e+00  -1.7942907175230439e-07 -1.9312933786905648e-07 0.0000000000000000e+00  -1.9906263827053491e-07 -2.1558960757798531e-07 0.0000000000000000e+00  -7.3807609751698932e-08 -1.9949747116329068e-07 0.0000000000000000e+00  -2.5249217183231940e-07 -2.4129027607505544e-07 0.0000000000000000e+00  1.4337448250810036e-07 -1.4120938061121078e-07 0.0000000000000000e+00  -6.4639997509877810e-07 -3.0775682479441215e-07 0.0000000000000000e+00  7.1993775848688295e-07 6.0919477449991839e-08 0.0000000000000000e+00  -2.5989168800385481e-06 -6.2016926686309577e-07 0.0000000000000000e+00  2.4148954708148574e-06 1.0741522173689201e-06 0.0000000000000000e+00  0.0000000000000000e+00 0.0000000000000000e+00 0.0000000000000000e+00  0.0000000000000000e+00 0.0000000000000000e+00 0.0000000000000000e+00  -2.7093665376284831e-06 1.0586569687592184e-06 0.0000000000000000e+00  2.3015116199703497e-06 -2.4285253012296044e-07 0.0000000000000000e+00  -6.7094833176080107e-07 2.8892915022738559e-07 0.0000000000000000e+00  3.2091772937828805e-07 -1.7118001664147452e-08 0.0000000000000000e+00  -9.6725470478623522e-08 2.6004924402207993e-08 0.0000000000000000e+00  -3.2590747247794042e-08 -4.7814302441571051e-08 0.0000000000000000e+00  -7.4342855776525365e-08 -6.3499803593409835e-08 0.0000000000000000e+00  -1.0505695131174568e-07 -7.6461313935933313e-08 0.0000000000000000e+00  -1.2176418381188672e-07 -7.6282709838882385e-08 0.0000000000000000e+00  -1.3845943967984496e-07 -6.9148788021292295e-08 0.0000000000000000e+00  -1.5022065951955846e-07 -5.7134598059296468e-08 0.0000000000000000e+00  -1.5983978669621905e-07 -4.2095223480287807e-08 0.0000000000000000e+00  -1.6838663213531624e-07 -2.5337649148039348e-08 0.0000000000000000e+00  -1.7651661486923963e-07 -7.6624662371640693e-09 0.0000000000000000e+00  -1.8492314615288730e-07 1.0470278929588588e-08 0.0000000000000000e+00  -1.9405340212684633e-07 2.8866503986222553e-08 0.0000000000000000e+00  -2.0429567021067770e-07 4.7467192883602853e-08 0.0000000000000000e+00  -2.1600920749026650e-07 6.6193579379671188e-08 0.0000000000000000e+00  -2.2951617093399966e-07 8.4768438524753821e-08 0.0000000000000000e+00  -2.4503638528859232e-07 1.0255148151351666e-07 0.0000000000000000e+00  -2.6255213180795173e-07 1.1845671352949490e-07 0.0000000000000000e+00  -2.8165329655491995e-07 1.3101763839508258e-07 0.0000000000000000e+00  -3.0143176441455784e-07 1.3862293227893256e-07 0.0000000000000000e+00  -3.2050829715133119e-07 1.3986809355883267e-07 0.0000000000000000e+00  -3.3720968433522743e-07 1.3390277052928100e-07 0.0000000000000000e+00  -3.4988456696101351e-07 1.2064319347252732e-07 0.0000000000000000e+00  -3.5719672544328064e-07 1.0077950397968378e-07 0.0000000000000000e+00  -3.5840805185553971e-07 7.5587660509716713e-08 0.0000000000000000e+00  -3.5334133381165119e-07 4.6646294471687761e-08 0.0000000000000000e+00  -3.4253312764783033e-07 1.5525716136776917e-08 0.0000000000000000e+00  -3.2660961234196235e-07 -1.6383228152154340e-08 0.0000000000000000e+00  -3.0704386873233323e-07 -4.8068986950471447e-08 0.0000000000000000e+00  -2.8409713269858633e-07 -7.8677694524223648e-08 0.0000000000000000e+00  -2.6062351591428250e-07 -1.0791961140038422e-07 0.0000000000000000e+00  -2.3413106665677039e-07 -1.3489250972454527e-07 0.0000000000000000e+00  -2.1285869039828604e-07 -1.6024989402568808e-07 0.0000000000000000e+00  -1.8328499440145819e-07 -1.8114247221410493e-07 0.0000000000000000e+00  -1.7588912811986417e-07 -2.0165073093449769e-07 0.0000000000000000e+00  -1.3281379186882056e-07 -2.1048518011091165e-07 0.0000000000000000e+00  -1.7330389591457757e-07 -2.2770841523005811e-07 0.0000000000000000e+00  -6.3355913205242347e-08 -2.0815948757318103e-07 0.0000000000000000e+00  -2.6959397270708153e-07 -2.4167856947062482e-07 0.0000000000000000e+00  1.2158137259689364e-07 -1.4865047045477213e-07 0.0000000000000000e+00  -6.9909934286308809e-07 -3.0044207685446515e-07 0.0000000000000000e+00  6.9000537243586597e-07 2.0259113652235211e-08 0.0000000000000000e+00  -2.6346353712995335e-06 -5.8188035904933088e-07 0.0000000000000000e+00  2.4079650369637192e-06 9.1274412546955583e-07 0.0000000000000000e+00  0.0000000000000000e+00 0.0000000000000000e+00 0.0000000000000000e+00  0.0000000000000000e+00 0.0000000000000000e+00 0.0000000000000000e+00  -2.6654824382032529e-06 9.5549068576590772e-07 0.0000000000000000e+00  2.5351536450864221e-06 -2.3244199526454053e-07 0.0000000000000000e+00  -8.2648481671197601e-07 2.7797091268305162e-07 0.0000000000000000e+00  5.1483730753347664e-07 -1.7195781041402120e-08 0.0000000000000000e+00  -1.6311428513613369e-07 6.8373173720780018e-08 0.0000000000000000e+00  6.1574318609979271e-08 -2.1722391740770659e-08 0.0000000000000000e+00  -4.4790155530379572e-08 -2.8652493480792427e-08 0.0000000000000000e+00  -5.4242667762721506e-08 -5.1181954562601752e-08 0.0000000000000000e+00  -8.0391071310312864e-08 -5.4437393942813411e-08 0.0000000000000000e+00  -1.0361214264766769e-07 -5.2077990580479866e-08 0.0000000000000000e+00  -1.2148460291001249e-07 -4.3143620375327066e-08 0.0000000000000000e+00  -1.3780758906222021e-07 -3.0277516417448494e-08 0.0000000000000000e+00  -1.5190301248133142e-07 -1.4817242883706755e-08 0.0000000000000000e+00  -1.6466645541932203e-07 2.2133376545697181e-09 0.0000000000000000e+00  -1.7660889588705719e-07 2.0179869735125936e-08 0.0000000000000000e+00  -1.8810812893664977e-07 3.8793769658959504e-08 0.0000000000000000e+00  -1.9956957394455992e-07 5.7970625388574061e-08 0.0000000000000000e+00  -2.1140383185289489e-07 7.7660450284644204e-08 0.0000000000000000e+00  -2.2405905179464280e-07 9.7600506987232990e-08 0.0000000000000000e+00  -2.3793529735252816e-07 1.1705764909998485e-07 0.0000000000000000e+00  -2.5319645069771740e-07 1.3466362380380454e-07 0.0000000000000000e+00  -2.6953222475960901e-07 1.4847123675924448e-07 0.0000000000000000e+00  -2.8597997620797125e-07 1.5629403091728595e-07 0.0000000000000000e+00  -3.0094912021280045e-07 1.5624904370974588e-07 0.0000000000000000e+00  -3.1249284311906155e-07 1.4729312626518765e-07 0.0000000000000000e+00  -3.1878572600556301e-07 1.2952462809541685e-07 0.0000000000000000e+00  -3.1855966950211852e-07 1.0413983145542112e-07 0.0000000000000000e+00  -3.1144624489636958e-07 7.3089298643531756e-08 0.0000000000000000e+00  -2.9787413230653748e-07 3.8613742313719227e-08 0.0000000000000000e+00  -2.7911305316740963e-07 2.7970309227293219e-09 0.0000000000000000e+00  -2.5647739590650536e-07 -3.2660957436467323e-08 0.0000000000000000e+00  -2.3205412425399524e-07 -6.6630050445636889e-08 0.0000000000000000e+00  -2.0646551904693374e-07 -9.8270181733228327e-08 0.0000000000000000e+00  -1.8292154658046744e-07 -1.2736736441224