<?xml version="1.0"?>
<VTKFile type="UnstructuredGrid"  version="0.1"  >
<UnstructuredGrid>
<Piece  NumberOfPoints="1617" NumberOfCells="3072">
<Points>
<DataArray  type="Float64"  NumberOfComponents="3"  format="ascii">0 0 0  0.03125 0 0  0.0625 0 0  0.09375 0 0  0.125 0 0  0.15625 0 0  0.1875 0 0  0.21875 0 0  0.25 0 0  0.28125 0 0  0.3125 0 0  0.34375 0 0  0.375 0 0  0.40625 0 0  0.4375 0 0  0.46875 0 0  0.5 0 0  0.53125 0 0  0.5625 0 0  0.59375 0 0  0.625 0 0  0.65625 0 0  0.6875 0 0  0.71875 0 0  0.75 0 0  0.78125 0 0  0.8125 0 0  0.84375 0 0  0.875 0 0  0.90625 0 0  0.9375 0 0  0.96875 0 0  1 0 0  1.03125 0 0  1.0625 0 0  1.09375 0 0  1.125 0 0  1.15625 0 0  1.1875 0 0  1.21875 0 0  1.25 0 0  1.28125 0 0  1.3125 0 0  1.34375 0 0  1.375 0 0  1.40625 0 0  1.4375 0 0  1.46875 0 0  1.5 0 0  0 0.03125 0  0.03125 0.03125 0  0.0625 0.03125 0  0.09375 0.03125 0  0.125 0.03125 0  0.15625 0.03125 0  0.1875 0.03125 0  0.21875 0.03125 0  0.25 0.03125 0  0.28125 0.03125 0  0.3125 0.03125 0  0.34375 0.03125 0  0.375 0.03125 0  0.40625 0.03125 0  0.4375 0.03125 0  0.46875 0.03125 0  0.5 0.03125 0  0.53125 0.03125 0  0.5625 0.03125 0  0.59375 0.03125 0  0.625 0.03125 0  0.65625 0.03125 0  0.6875 0.03125 0  0.71875 0.03125 0  0.75 0.03125 0  0.78125 0.03125 0  0.8125 0.03125 0  0.84375 0.03125 0  0.875 0.03125 0  0.90625 0.03125 0  0.9375 0.03125 0  0.96875 0.03125 0  1 0.03125 0  1.03125 0.03125 0  1.0625 0.03125 0  1.09375 0.03125 0  1.125 0.03125 0  1.15625 0.03125 0  1.1875 0.03125 0  1.21875 0.03125 0  1.25 0.03125 0  1.28125 0.03125 0  1.3125 0.03125 0  1.34375 0.03125 0  1.375 0.03125 0  1.40625 0.03125 0  1.4375 0.03125 0  1.46875 0.03125 0  1.5 0.03125 0  0 0.0625 0  0.03125 0.0625 0  0.0625 0.0625 0  0.09375 0.0625 0  0.125 0.0625 0  0.15625 0.0625 0  0.1875 0.0625 0  0.21875 0.0625 0  0.25 0.0625 0  0.28125 0.0625 0  0.3125 0.0625 0  0.34375 0.0625 0  0.375 0.0625 0  0.40625 0.0625 0  0.4375 0.0625 0  0.46875 0.0625 0  0.5 0.0625 0  0.53125 0.0625 0  0.5625 0.0625 0  0.59375 0.0625 0  0.625 0.0625 0  0.65625 0.0625 0  0.6875 0.0625 0  0.71875 0.0625 0  0.75 0.0625 0  0.78125 0.0625 0  0.8125 0.0625 0  0.84375 0.0625 0  0.875 0.0625 0  0.90625 0.0625 0  0.9375 0.0625 0  0.96875 0.0625 0  1 0.0625 0  1.03125 0.0625 0  1.0625 0.0625 0  1.09375 0.0625 0  1.125 0.0625 0  1.15625 0.0625 0  1.1875 0.0625 0  1.21875 0.0625 0  1.25 0.0625 0  1.28125 0.0625 0  1.3125 0.0625 0  1.34375 0.0625 0  1.375 0.0625 0  1.40625 0.0625 0  1.4375 0.0625 0  1.46875 0.0625 0  1.5 0.0625 0  0 0.09375 0  0.03125 0.09375 0  0.0625 0.09375 0  0.09375 0.09375 0  0.125 0.09375 0  0.15625 0.09375 0  0.1875 0.09375 0  0.21875 0.09375 0  0.25 0.09375 0  0.28125 0.09375 0  0.3125 0.09375 0  0.34375 0.09375 0  0.375 0.09375 0  0.40625 0.09375 0  0.4375 0.09375 0  0.46875 0.09375 0  0.5 0.09375 0  0.53125 0.09375 0  0.5625 0.09375 0  0.59375 0.09375 0  0.625 0.09375 0  0.65625 0.09375 0  0.6875 0.09375 0  0.71875 0.09375 0  0.75 0.09375 0  0.78125 0.09375 0  0.8125 0.09375 0  0.84375 0.09375 0  0.875 0.09375 0  0.90625 0.09375 0  0.9375 0.09375 0  0.96875 0.09375 0  1 0.09375 0  1.03125 0.09375 0  1.0625 0.09375 0  1.09375 0.09375 0  1.125 0.09375 0  1.15625 0.09375 0  1.1875 0.09375 0  1.21875 0.09375 0  1.25 0.09375 0  1.28125 0.09375 0  1.3125 0.09375 0  1.34375 0.09375 0  1.375 0.09375 0  1.40625 0.09375 0  1.4375 0.09375 0  1.46875 0.09375 0  1.5 0.09375 0  0 0.125 0  0.03125 0.125 0  0.0625 0.125 0  0.09375 0.125 0  0.125 0.125 0  0.15625 0.125 0  0.1875 0.125 0  0.21875 0.125 0  0.25 0.125 0  0.28125 0.125 0  0.3125 0.125 0  0.34375 0.125 0  0.375 0.125 0  0.40625 0.125 0  0.4375 0.125 0  0.46875 0.125 0  0.5 0.125 0  0.53125 0.125 0  0.5625 0.125 0  0.59375 0.125 0  0.625 0.125 0  0.65625 0.125 0  0.6875 0.125 0  0.71875 0.125 0  0.75 0.125 0  0.78125 0.125 0  0.8125 0.125 0  0.84375 0.125 0  0.875 0.125 0  0.90625 0.125 0  0.9375 0.125 0  0.96875 0.125 0  1 0.125 0  1.03125 0.125 0  1.0625 0.125 0  1.09375 0.125 0  1.125 0.125 0  1.15625 0.125 0  1.1875 0.125 0  1.21875 0.125 0  1.25 0.125 0  1.28125 0.125 0  1.3125 0.125 0  1.34375 0.125 0  1.375 0.125 0  1.40625 0.125 0  1.4375 0.125 0  1.46875 0.125 0  1.5 0.125 0  0 0.15625 0  0.03125 0.15625 0  0.0625 0.15625 0  0.09375 0.15625 0  0.125 0.15625 0  0.15625 0.15625 0  0.1875 0.15625 0  0.21875 0.15625 0  0.25 0.15625 0  0.28125 0.15625 0  0.3125 0.15625 0  0.34375 0.15625 0  0.375 0.15625 0  0.40625 0.15625 0  0.4375 0.15625 0  0.46875 0.15625 0  0.5 0.15625 0  0.53125 0.15625 0  0.5625 0.15625 0  0.59375 0.15625 0  0.625 0.15625 0  0.65625 0.15625 0  0.6875 0.15625 0  0.71875 0.15625 0  0.75 0.15625 0  0.78125 0.15625 0  0.8125 0.15625 0  0.84375 0.15625 0  0.875 0.15625 0  0.90625 0.15625 0  0.9375 0.15625 0  0.96875 0.15625 0  1 0.15625 0  1.03125 0.15625 0  1.0625 0.15625 0  1.09375 0.15625 0  1.125 0.15625 0  1.15625 0.15625 0  1.1875 0.15625 0  1.21875 0.15625 0  1.25 0.15625 0  1.28125 0.15625 0  1.3125 0.15625 0  1.34375 0.15625 0  1.375 0.15625 0  1.40625 0.15625 0  1.4375 0.15625 0  1.46875 0.15625 0  1.5 0.15625 0  0 0.1875 0  0.03125 0.1875 0  0.0625 0.1875 0  0.09375 0.1875 0  0.125 0.1875 0  0.15625 0.1875 0  0.1875 0.1875 0  0.21875 0.1875 0  0.25 0.1875 0  0.28125 0.1875 0  0.3125 0.1875 0  0.34375 0.1875 0  0.375 0.1875 0  0.40625 0.1875 0  0.4375 0.1875 0  0.46875 0.1875 0  0.5 0.1875 0  0.53125 0.1875 0  0.5625 0.1875 0  0.59375 0.1875 0  0.625 0.1875 0  0.65625 0.1875 0  0.6875 0.1875 0  0.71875 0.1875 0  0.75 0.1875 0  0.78125 0.1875 0  0.8125 0.1875 0  0.84375 0.1875 0  0.875 0.1875 0  0.90625 0.1875 0  0.9375 0.1875 0  0.96875 0.1875 0  1 0.1875 0  1.03125 0.1875 0  1.0625 0.1875 0  1.09375 0.1875 0  1.125 0.1875 0  1.15625 0.1875 0  1.1875 0.1875 0  1.21875 0.1875 0  1.25 0.1875 0  1.28125 0.1875 0  1.3125 0.1875 0  1.34375 0.1875 0  1.375 0.1875 0  1.40625 0.1875 0  1.4375 0.1875 0  1.46875 0.1875 0  1.5 0.1875 0  0 0.21875 0  0.03125 0.21875 0  0.0625 0.21875 0  0.09375 0.21875 0  0.125 0.21875 0  0.15625 0.21875 0  0.1875 0.21875 0  0.21875 0.21875 0  0.25 0.21875 0  0.28125 0.21875 0  0.3125 0.21875 0  0.34375 0.21875 0  0.375 0.21875 0  0.40625 0.21875 0  0.4375 0.21875 0  0.46875 0.21875 0  0.5 0.21875 0  0.53125 0.21875 0  0.5625 0.21875 0  0.59375 0.21875 0  0.625 0.21875 0  0.65625 0.21875 0  0.6875 0.21875 0  0.71875 0.21875 0  0.75 0.21875 0  0.78125 0.21875 0  0.8125 0.21875 0  0.84375 0.21875 0  0.875 0.21875 0  0.90625 0.21875 0  0.9375 0.21875 0  0.96875 0.21875 0  1 0.21875 0  1.03125 0.21875 0  1.0625 0.21875 0  1.09375 0.21875 0  1.125 0.21875 0  1.15625 0.21875 0  1.1875 0.21875 0  1.21875 0.21875 0  1.25 0.21875 0  1.28125 0.21875 0  1.3125 0.21875 0  1.34375 0.21875 0  1.375 0.21875 0  1.40625 0.21875 0  1.4375 0.21875 0  1.46875 0.21875 0  1.5 0.21875 0  0 0.25 0  0.03125 0.25 0  0.0625 0.25 0  0.09375 0.25 0  0.125 0.25 0  0.15625 0.25 0  0.1875 0.25 0  0.21875 0.25 0  0.25 0.25 0  0.28125 0.25 0  0.3125 0.25 0  0.34375 0.25 0  0.375 0.25 0  0.40625 0.25 0  0.4375 0.25 0  0.46875 0.25 0  0.5 0.25 0  0.53125 0.25 0  0.5625 0.25 0  0.59375 0.25 0  0.625 0.25 0  0.65625 0.25 0  0.6875 0.25 0  0.71875 0.25 0  0.75 0.25 0  0.78125 0.25 0  0.8125 0.25 0  0.84375 0.25 0  0.875 0.25 0  0.90625 0.25 0  0.9375 0.25 0  0.96875 0.25 0  1 0.25 0  1.03125 0.25 0  1.0625 0.25 0  1.09375 0.25 0  1.125 0.25 0  1.15625 0.25 0  1.1875 0.25 0  1.21875 0.25 0  1.25 0.25 0  1.28125 0.25 0  1.3125 0.25 0  1.34375 0.25 0  1.375 0.25 0  1.40625 0.25 0  1.4375 0.25 0  1.46875 0.25 0  1.5 0.25 0  0 0.28125 0  0.03125 0.28125 0  0.0625 0.28125 0  0.09375 0.28125 0  0.125 0.28125 0  0.15625 0.28125 0  0.1875 0.28125 0  0.21875 0.28125 0  0.25 0.28125 0  0.28125 0.28125 0  0.3125 0.28125 0  0.34375 0.28125 0  0.375 0.28125 0  0.40625 0.28125 0  0.4375 0.28125 0  0.46875 0.28125 0  0.5 0.28125 0  0.53125 0.28125 0  0.5625 0.28125 0  0.59375 0.28125 0  0.625 0.28125 0  0.65625 0.28125 0  0.6875 0.28125 0  0.71875 0.28125 0  0.75 0.28125 0  0.78125 0.28125 0  0.8125 0.28125 0  0.84375 0.28125 0  0.875 0.28125 0  0.90625 0.28125 0  0.9375 0.28125 0  0.96875 0.28125 0  1 0.28125 0  1.03125 0.28125 0  1.0625 0.28125 0  1.09375 0.28125 0  1.125 0.28125 0  1.15625 0.28125 0  1.1875 0.28125 0  1.21875 0.28125 0  1.25 0.28125 0  1.28125 0.28125 0  1.3125 0.28125 0  1.34375 0.28125 0  1.375 0.28125 0  1.40625 0.28125 0  1.4375 0.28125 0  1.46875 0.28125 0  1.5 0.28125 0  0 0.3125 0  0.03125 0.3125 0  0.0625 0.3125 0  0.09375 0.3125 0  0.125 0.3125 0  0.15625 0.3125 0  0.1875 0.3125 0  0.21875 0.3125 0  0.25 0.3125 0  0.28125 0.3125 0  0.3125 0.3125 0  0.34375 0.3125 0  0.375 0.3125 0  0.40625 0.3125 0  0.4375 0.3125 0  0.46875 0.3125 0  0.5 0.3125 0  0.53125 0.3125 0  0.5625 0.3125 0  0.59375 0.3125 0  0.625 0.3125 0  0.65625 0.3125 0  0.6875 0.3125 0  0.71875 0.3125 0  0.75 0.3125 0  0.78125 0.3125 0  0.8125 0.3125 0  0.84375 0.3125 0  0.875 0.3125 0  0.90625 0.3125 0  0.9375 0.3125 0  0.96875 0.3125 0  1 0.3125 0  1.03125 0.3125 0  1.0625 0.3125 0  1.09375 0.3125 0  1.125 0.3125 0  1.15625 0.3125 0  1.1875 0.3125 0  1.21875 0.3125 0  1.25 0.3125 0  1.28125 0.3125 0  1.3125 0.3125 0  1.34375 0.3125 0  1.375 0.3125 0  1.40625 0.3125 0  1.4375 0.3125 0  1.46875 0.3125 0  1.5 0.3125 0  0 0.34375 0  0.03125 0.34375 0  0.0625 0.34375 0  0.09375 0.34375 0  0.125 0.34375 0  0.15625 0.34375 0  0.1875 0.34375 0  0.21875 0.34375 0  0.25 0.34375 0  0.28125 0.34375 0  0.3125 0.34375 0  0.34375 0.34375 0  0.375 0.34375 0  0.40625 0.34375 0  0.4375 0.34375 0  0.46875 0.34375 0  0.5 0.34375 0  0.53125 0.34375 0  0.5625 0.34375 0  0.59375 0.34375 0  0.625 0.34375 0  0.65625 0.34375 0  0.6875 0.34375 0  0.71875 0.34375 0  0.75 0.34375 0  0.78125 0.34375 0  0.8125 0.34375 0  0.84375 0.34375 0  0.875 0.34375 0  0.90625 0.34375 0  0.9375 0.34375 0  0.96875 0.34375 0  1 0.34375 0  1.03125 0.34375 0  1.0625 0.34375 0  1.09375 0.34375 0  1.125 0.34375 0  1.15625 0.34375 0  1.1875 0.34375 0  1.21875 0.34375 0  1.25 0.34375 0  1.28125 0.34375 0  1.3125 0.34375 0  1.34375 0.34375 0  1.375 0.34375 0  1
[...]
<PointData  Vectors="f_17"> 
<DataArray  type="Float64"  Name="f_17"  NumberOfComponents="3" format="ascii">0.0000000000000000e+00 0.0000000000000000e+00 0.0000000000000000e+00  0.0000000000000000e+00 0.0000000000000000e+00 0.0000000000000000e+00  0.0000000000000000e+00 0.0000000000000000e+00 0.0000000000000000e+00  0.0000000000000000e+00 0.0000000000000000e+00 0.0000000000000000e+00  0.0000000000000000e+00 0.0000000000000000e+00 0.0000000000000000e+00  0.0000000000000000e+00 0.0000000000000000e+00 0.0000000000000000e+00  0.0000000000000000e+00 0.0000000000000000e+00 0.0000000000000000e+00  0.0000000000000000e+00 0.0000000000000000e+00 0.0000000000000000e+00  0.0000000000000000e+00 0.0000000000000000e+00 0.0000000000000000e+00  0.0000000000000000e+00 0.0000000000000000e+00 0.0000000000000000e+00  0.0000000000000000e+00 0.0000000000000000e+00 0.0000000000000000e+00  0.0000000000000000e+00 0.0000000000000000e+00 0.0000000000000000e+00  0.0000000000000000e+00 0.0000000000000000e+00 0.0000000000000000e+00  0.0000000000000000e+00 0.0000000000000000e+00 0.0000000000000000e+00  0.0000000000000000e+00 0.0000000000000000e+00 0.0000000000000000e+00  0.0000000000000000e+00 0.0000000000000000e+00 0.0000000000000000e+00  0.0000000000000000e+00 0.0000000000000000e+00 0.0000000000000000e+00  0.0000000000000000e+00 0.0000000000000000e+00 0.0000000000000000e+00  0.0000000000000000e+00 0.0000000000000000e+00 0.0000000000000000e+00  0.0000000000000000e+00 0.0000000000000000e+00 0.0000000000000000e+00  0.0000000000000000e+00 0.0000000000000000e+00 0.0000000000000000e+00  0.0000000000000000e+00 0.0000000000000000e+00 0.0000000000000000e+00  0.0000000000000000e+00 0.0000000000000000e+00 0.0000000000000000e+00  0.0000000000000000e+00 0.0000000000000000e+00 0.0000000000000000e+00  0.0000000000000000e+00 0.0000000000000000e+00 0.0000000000000000e+00  0.0000000000000000e+00 0.0000000000000000e+00 0.0000000000000000e+00  0.0000000000000000e+00 0.0000000000000000e+00 0.0000000000000000e+00  0.0000000000000000e+00 0.0000000000000000e+00 0.0000000000000000e+00  0.0000000000000000e+00 0.0000000000000000e+00 0.0000000000000000e+00  0.0000000000000000e+00 0.0000000000000000e+00 0.0000000000000000e+00  0.0000000000000000e+00 0.0000000000000000e+00 0.0000000000000000e+00  0.0000000000000000e+00 0.0000000000000000e+00 0.0000000000000000e+00  0.0000000000000000e+00 0.0000000000000000e+00 0.0000000000000000e+00  0.0000000000000000e+00 0.0000000000000000e+00 0.0000000000000000e+00  0.0000000000000000e+00 0.0000000000000000e+00 0.0000000000000000e+00  0.0000000000000000e+00 0.0000000000000000e+00 0.0000000000000000e+00  0.0000000000000000e+00 0.0000000000000000e+00 0.0000000000000000e+00  0.0000000000000000e+00 0.0000000000000000e+00 0.0000000000000000e+00  0.0000000000000000e+00 0.0000000000000000e+00 0.0000000000000000e+00  0.0000000000000000e+00 0.0000000000000000e+00 0.0000000000000000e+00  0.0000000000000000e+00 0.0000000000000000e+00 0.0000000000000000e+00  0.0000000000000000e+00 0.0000000000000000e+00 0.0000000000000000e+00  0.0000000000000000e+00 0.0000000000000000e+00 0.0000000000000000e+00  0.0000000000000000e+00 0.0000000000000000e+00 0.0000000000000000e+00  0.0000000000000000e+00 0.0000000000000000e+00 0.0000000000000000e+00  0.0000000000000000e+00 0.0000000000000000e+00 0.0000000000000000e+00  0.0000000000000000e+00 0.0000000000000000e+00 0.0000000000000000e+00  0.0000000000000000e+00 0.0000000000000000e+00 0.0000000000000000e+00  0.0000000000000000e+00 0.0000000000000000e+00 0.0000000000000000e+00  0.0000000000000000e+00 0.0000000000000000e+00 0.0000000000000000e+00  -4.7761885135595120e-08 -3.7452225254469257e-08 0.0000000000000000e+00  -1.0898705689067695e-07 9.9348754787068910e-08 0.0000000000000000e+00  -1.8181133879179603e-08 -1.0054451672165699e-08 0.0000000000000000e+00  -2.0799339899271540e-07 -4.2943823580437199e-08 0.0000000000000000e+00  -1.9488161586281382e-07 -6.9420396793544619e-08 0.0000000000000000e+00  -1.8691780537348307e-07 -7.5196621105455122e-08 0.0000000000000000e+00  -1.8263095796789075e-07 -6.8916248499092319e-08 0.0000000000000000e+00  -1.6713150843228605e-07 -6.0020168891691030e-08 0.0000000000000000e+00  -1.5234203220602482e-07 -4.9954232328879441e-08 0.0000000000000000e+00  -1.3851640406413038e-07 -3.9913641857603472e-08 0.0000000000000000e+00  -1.2700804912892033e-07 -3.0347872648715264e-08 0.0000000000000000e+00  -1.1908959718115181e-07 -2.1348997561038699e-08 0.0000000000000000e+00  -1.1521925137488198e-07 -1.2936720017428102e-08 0.0000000000000000e+00  -1.1574192437013530e-07 -5.0572308221699609e-09 0.0000000000000000e+00  -1.2085558013395836e-07 2.3804237759091996e-09 0.0000000000000000e+00  -1.3068150578632118e-07 9.4748721840656967e-09 0.0000000000000000e+00  -1.4531256527707452e-07 1.6302023296359514e-08 0.0000000000000000e+00  -1.6480400383477737e-07 2.2880472367855416e-08 0.0000000000000000e+00  -1.8913645965441980e-07 2.9139433080734144e-08 0.0000000000000000e+00  -2.1814849732275331e-07 3.4898659602398484e-08 0.0000000000000000e+00  -2.5145296354976207e-07 3.9870586283460688e-08 0.0000000000000000e+00  -2.8836131354004779e-07 4.3691206723623705e-08 0.0000000000000000e+00  -3.2783913741208793e-07 4.5977624544316199e-08 0.0000000000000000e+00  -3.6851941733857757e-07 4.6399974424281580e-08 0.0000000000000000e+00  -4.0877106789790001e-07 4.4748516294881898e-08 0.0000000000000000e+00  -4.4683351002482411e-07 4.0975935801193422e-08 0.0000000000000000e+00  -4.8094748286991766e-07 3.5205335594144115e-08 0.0000000000000000e+00  -5.0953848970248955e-07 2.7698869049488184e-08 0.0000000000000000e+00  -5.3123927931145122e-07 1.8811967618020444e-08 0.0000000000000000e+00  -5.4511840785211498e-07 8.9155469127567510e-09 0.0000000000000000e+00  -5.5032268568947875e-07 -1.6169712187767580e-09 0.0000000000000000e+00  -5.4678761485069950e-07 -1.2538971749624530e-08 0.0000000000000000e+00  -5.3362978845124613e-07 -2.3530372637134973e-08 0.0000000000000000e+00  -5.1229664613147281e-07 -3.4681125615157011e-08 0.0000000000000000e+00  -4.7986484366432667e-07 -4.5372804855014561e-08 0.0000000000000000e+00  -4.4276462020822294e-07 -5.6697044949742232e-08 0.0000000000000000e+00  -3.8838136142332420e-07 -6.5992933406137683e-08 0.0000000000000000e+00  -3.4354056740058169e-07 -7.8685111444102959e-08 0.0000000000000000e+00  -2.5454053753531311e-07 -8.2314135417520782e-08 0.0000000000000000e+00  -2.3262555771670853e-07 -1.0229042601924217e-07 0.0000000000000000e+00  -5.4567778621070998e-08 -8.2161719712378284e-08 0.0000000000000000e+00  -1.7432011850615795e-07 -1.3640230005991467e-07 0.0000000000000000e+00  3.0951227282501656e-07 -1.9724953646015582e-08 0.0000000000000000e+00  -4.2938339520377048e-07 -2.2851483540456691e-07 0.0000000000000000e+00  1.1215142706429874e-06 2.3827978248647375e-07 0.0000000000000000e+00  -2.4784860795046051e-06 -7.5542106425317049e-07 0.0000000000000000e+00  2.9271265809381887e-06 1.3310354360993803e-06 0.0000000000000000e+00  0.0000000000000000e+00 0.0000000000000000e+00 0.0000000000000000e+00  0.0000000000000000e+00 0.0000000000000000e+00 0.0000000000000000e+00  -1.4346368732046724e-06 5.9828533361284369e-07 0.0000000000000000e+00  8.0897109813644789e-07 -5.9143332105867917e-08 0.0000000000000000e+00  -5.5444789330894910e-08 9.3445326320797468e-08 0.0000000000000000e+00  -2.0543458562231584e-07 -1.5529788957559947e-08 0.0000000000000000e+00  -2.1238187340581311e-07 -6.3197685035521389e-08 0.0000000000000000e+00  -2.6920632097799706e-07 -8.4706770265849130e-08 0.0000000000000000e+00  -2.6912324920852897e-07 -9.0087910812132593e-08 0.0000000000000000e+00  -2.6003707138854111e-07 -8.6474755065247143e-08 0.0000000000000000e+00  -2.4715556003158542e-07 -7.7569094595777440e-08 0.0000000000000000e+00  -2.3153174151332703e-07 -6.5887538682242111e-08 0.0000000000000000e+00  -2.1766249604559648e-07 -5.2746793217408363e-08 0.0000000000000000e+00  -2.0670348890926490e-07 -3.8963854641628692e-08 0.0000000000000000e+00  -1.9957742951305184e-07 -2.5029581633620920e-08 0.0000000000000000e+00  -1.9687304197810230e-07 -1.1194752115701699e-08 0.0000000000000000e+00  -1.9886406476082000e-07 2.4447917797429919e-09 0.0000000000000000e+00  -2.0571962070639799e-07 1.5878621731779038e-08 0.0000000000000000e+00  -2.1753391003121029e-07 2.9110232209298395e-08 0.0000000000000000e+00  -2.3434605865360511e-07 4.2078272971055924e-08 0.0000000000000000e+00  -2.5611503165642922e-07 5.4580675597575024e-08 0.0000000000000000e+00  -2.8265019658888285e-07 6.6219758031190363e-08 0.0000000000000000e+00  -3.1351692061899025e-07 7.6390898282209672e-08 0.0000000000000000e+00  -3.4794510834383283e-07 8.4332128220827079e-08 0.0000000000000000e+00  -3.8477409917817631e-07 8.9234352551170887e-08 0.0000000000000000e+00  -4.2247135792579695e-07 9.0388588440875597e-08 0.0000000000000000e+00  -4.5922495907759705e-07 8.7328969335422791e-08 0.0000000000000000e+00  -4.9311885442142058e-07 7.9927234365690884e-08 0.0000000000000000e+00  -5.2230206099445175e-07 6.8413644014457223e-08 0.0000000000000000e+00  -5.4520554927273423e-07 5.3317665084724441e-08 0.0000000000000000e+00  -5.6056218218773618e-07 3.5366804112332754e-08 0.0000000000000000e+00  -5.6763869882190863e-07 1.5343369061739013e-08 0.0000000000000000e+00  -5.6581810618145604e-07 -5.9830674942270376e-09 0.0000000000000000e+00  -5.5534105187795436e-07 -2.8021675102695611e-08 0.0000000000000000e+00  -5.3556774737504481e-07 -5.0172209288301571e-08 0.0000000000000000e+00  -5.0831402853513607e-07 -7.2292758994809591e-08 0.0000000000000000e+00  -4.7081499817159690e-07 -9.3586906560687219e-08 0.0000000000000000e+00  -4.3004882933110576e-07 -1.1489234551475753e-07 0.0000000000000000e+00  -3.7341453648597880e-07 -1.3345148206542204e-07 0.0000000000000000e+00  -3.2872666485055695e-07 -1.5397769617661639e-07 0.0000000000000000e+00  -2.4221622127984683e-07 -1.6447861968244438e-07 0.0000000000000000e+00  -2.2648140397613957e-07 -1.8749073272931504e-07 0.0000000000000000e+00  -5.9481882719005332e-08 -1.7094784557611041e-07 0.0000000000000000e+00  -1.9416921265381179e-07 -2.1716369574248206e-07 0.0000000000000000e+00  2.5951556581262630e-07 -1.0658316177366422e-07 0.0000000000000000e+00  -4.9917683161545186e-07 -2.8469945391865041e-07 0.0000000000000000e+00  9.4004019804859811e-07 1.3932184567878825e-07 0.0000000000000000e+00  -2.4887562672750088e-06 -6.3792143430503107e-07 0.0000000000000000e+00  2.8540036213653389e-06 1.3353536553105130e-06 0.0000000000000000e+00  0.0000000000000000e+00 0.0000000000000000e+00 0.0000000000000000e+00  0.0000000000000000e+00 0.0000000000000000e+00 0.0000000000000000e+00  -2.5293751611484856e-06 1.0573162384804471e-06 0.0000000000000000e+00  1.7471072677273330e-06 -1.7753816777234140e-07 0.0000000000000000e+00  -3.4472178693996787e-07 2.3499902149231481e-07 0.0000000000000000e+00  6.1545659156889250e-08 -4.9818374733572245e-09 0.0000000000000000e+00  -7.4012368746180929e-08 -2.6335242638769332e-08 0.0000000000000000e+00  -1.2752792869373346e-07 -7.3843563263165142e-08 0.0000000000000000e+00  -1.4227083677846383e-07 -8.9882320053281701e-08 0.0000000000000000e+00  -1.6867814329214869e-07 -9.2890015932637506e-08 0.0000000000000000e+00  -1.8057275174223820e-07 -8.6826155665828359e-08 0.0000000000000000e+00  -1.8806092075521824e-07 -7.5184345512278261e-08 0.0000000000000000e+00  -1.9321501800710741e-07 -6.0354439388238031e-08 0.0000000000000000e+00  -1.9709410539326209e-07 -4.3809098763832127e-08 0.0000000000000000e+00  -2.0140621578690278e-07 -2.6483612725382588e-08 0.0000000000000000e+00  -2.0698623632280013e-07 -8.9120958115382247e-09 0.0000000000000000e+00  -2.1447408299555316e-07 8.6442187380473400e-09 0.0000000000000000e+00  -2.2433539453631398e-07 2.6095073642540314e-08 0.0000000000000000e+00  -2.3690672953588639e-07 4.3414508525389845e-08 0.0000000000000000e+00  -2.5245373514311194e-07 6.0518885951144659e-08 0.0000000000000000e+00  -2.7115311615384195e-07 7.7142248591980636e-08 0.0000000000000000e+00  -2.9302959766697443e-07 9.2735374213046359e-08 0.0000000000000000e+00  -3.1785167746211444e-07 1.0642943852658395e-07 0.0000000000000000e+00  -3.4502153410211507e-07 1.1709947023987066e-07 0.0000000000000000e+00  -3.7350731145001722e-07 1.2353363527054643e-07 0.0000000000000000e+00  -4.0187088601341575e-07 1.2467099833751149e-07 0.0000000000000000e+00  -4.2839708406058134e-07 1.1983526527638237e-07 0.0000000000000000e+00  -4.5132560471210631e-07 1.0888588042396976e-07 0.0000000000000000e+00  -4.6907137235559513e-07 9.2241694708453276e-08 0.0000000000000000e+00  -4.8047079077313644e-07 7.0773359889795604e-08 0.0000000000000000e+00  -4.8478562307364575e-07 4.5625693010275131e-08 0.0000000000000000e+00  -4.8190521204692494e-07 1.7995805979776025e-08 0.0000000000000000e+00  -4.7185315475176661e-07 -1.0989304892100484e-08 0.0000000000000000e+00  -4.5552270969439705e-07 -4.0468818347533970e-08 0.0000000000000000e+00  -4.3282964210972991e-07 -6.9650663890563348e-08 0.0000000000000000e+00  -4.0618935331460095e-07 -9.8268577167488290e-08 0.0000000000000000e+00  -3.7321548761233361e-07 -1.2541880487057752e-07 0.0000000000000000e+00  -3.4155292477864097e-07 -1.5183151968738141e-07 0.0000000000000000e+00  -2.9871649930482325e-07 -1.7462089137805454e-07 0.0000000000000000e+00  -2.7350244925711987e-07 -1.9820265300721024e-07 0.0000000000000000e+00  -2.1179976527050900e-07 -2.1066121843269371e-07 0.0000000000000000e+00  -2.2730404274131913e-07 -2.3336096263806927e-07 0.0000000000000000e+00  -9.8049908400167658e-08 -2.1692802260599752e-07 0.0000000000000000e+00  -2.7314172841128547e-07 -2.5769022444523905e-07 0.0000000000000000e+00  1.2579864249790074e-07 -1.5564482423747388e-07 0.0000000000000000e+00  -6.6113791537267915e-07 -3.1868545362038586e-07 0.0000000000000000e+00  6.9676982523650373e-07 4.9635750203296088e-08 0.0000000000000000e+00  -2.6566915800190962e-06 -6.1847771189366912e-07 0.0000000000000000e+00  2.4963384971132948e-06 1.1038567999104954e-06 0.0000000000000000e+00  0.0000000000000000e+00 0.0000000000000000e+00 0.0000000000000000e+00  0.0000000000000000e+00 0.0000000000000000e+00 0.0000000000000000e+00  -2.7933868405799515e-06 1.0986128255847488e-06 0.0000000000000000e+00  2.3471339441620876e-06 -2.1945445496297625e-07 0.0000000000000000e+00  -6.6588264251376432e-07 2.9969637322738064e-07 0.0000000000000000e+00  3.1132474085689606e-07 -5.7487382811777583e-09 0.0000000000000000e+00  -1.0901544956895820e-07 3.4498035118323611e-08 0.0000000000000000e+00  -4.7690176723268843e-08 -4.1061113372164650e-08 0.0000000000000000e+00  -9.1882738327552609e-08 -5.7948529625002104e-08 0.0000000000000000e+00  -1.2486714847528798e-07 -7.1700752443587861e-08 0.0000000000000000e+00  -1.4376329443486954e-07 -7.1930802004647756e-08 0.0000000000000000e+00  -1.6255024278507335e-07 -6.4887068757182219e-08 0.0000000000000000e+00  -1.7632173662657391e-07 -5.2699790644133783e-08 0.0000000000000000e+00  -1.8789741793578578e-07 -3.7274547300260811e-08 0.0000000000000000e+00  -1.9838256875793154e-07 -1.9963661823439216e-08 0.0000000000000000e+00  -2.0846730463214037e-07 -1.6102345879057020e-09 0.0000000000000000e+00  -2.1887525773621567e-07 1.7284859009077877e-08 0.0000000000000000e+00  -2.3007650903467400e-07 3.6486937373362724e-08 0.0000000000000000e+00  -2.4247345107877073e-07 5.5894590794408696e-08 0.0000000000000000e+00  -2.5642929314052775e-07 7.5382005102777771e-08 0.0000000000000000e+00  -2.7225806039408868e-07 9.4617034174783591e-08 0.0000000000000000e+00  -2.9015645379218565e-07 1.1289434859915544e-07 0.0000000000000000e+00  -3.1006505672066133e-07 1.2905343537535265e-07 0.0000000000000000e+00  -3.3151046870401571e-07 1.4154902347708990e-07 0.0000000000000000e+00  -3.5349921634799438e-07 1.4869690938360927e-07 0.0000000000000000e+00  -3.7454859324745867e-07 1.4903891384070589e-07 0.0000000000000000e+00  -3.9287298790329894e-07 1.4170291260488807e-07 0.0000000000000000e+00  -4.0671296240429048e-07 1.2662299411531799e-07 0.0000000000000000e+00  -4.1464280850140246e-07 1.0454658653840336e-07 0.0000000000000000e+00  -4.1586504783147460e-07 7.6838185050111739e-08 0.0000000000000000e+00  -4.1017902558932184e-07 4.5182832478761935e-08 0.0000000000000000e+00  -3.9813339982474447e-07 1.1260690324942594e-08 0.0000000000000000e+00  -3.8039638632992252e-07 -2.3435949180761380e-08 0.0000000000000000e+00  -3.5850559834679410e-07 -5.7809730547983028e-08 0.0000000000000000e+00  -3.3280059750535353e-07 -9.0939070619036699e-08 0.0000000000000000e+00  -3.0622274629529300e-07 -1.2248322236712058e-07 0.0000000000000000e+00  -2.7636867534120440e-07 -1.5150184577995749e-07 0.0000000000000000e+00  -2.5157054284933230e-07 -1.7861790293506429e-07 0.0000000000000000e+00  -2.1838976931852411e-07 -2.0095258669388549e-07 0.0000000000000000e+00  -2.0740038411245774e-07 -2.2255033811224822e-07 0.0000000000000000e+00  -1.6079031235350575e-07 -2.3206798749091008e-07 0.0000000000000000e+00  -1.9790754845752911e-07 -2.4949619662994801e-07 0.0000000000000000e+00  -8.4663909307250584e-08 -2.2955051670548366e-07 0.0000000000000000e+00  -2.8787994138492497e-07 -2.6199873722216776e-07 0.0000000000000000e+00  1.0604519349057134e-07 -1.6704287044685361e-07 0.0000000000000000e+00  -7.1166594740509905e-07 -3.1552454783562038e-07 0.0000000000000000e+00  6.6922554233801188e-07 5.3372851527437928e-09 0.0000000000000000e+00  -2.6899295687733385e-06 -5.8396271317422895e-07 0.0000000000000000e+00  2.4888533372744116e-06 9.3802802388768806e-07 0.0000000000000000e+00  0.0000000000000000e+00 0.0000000000000000e+00 0.0000000000000000e+00  0.0000000000000000e+00 0.0000000000000000e+00 0.0000000000000000e+00  -2.7467255534169136e-06 9.9530664785462797e-07 0.0000000000000000e+00  2.5848060568946389e-06 -2.0632327005766779e-07 0.0000000000000000e+00  -8.1741334016549510e-07 2.9190833859477375e-07 0.0000000000000000e+00  5.0909127677986422e-07 -3.6047089174850117e-09 0.0000000000000000e+00  -1.7162277771201930e-07 7.8995142407543284e-08 0.0000000000000000e+00  5.0198662465995007e-08 -1.2846544198165262e-08 0.0000000000000000e+00  -5.8553538961484225e-08 -2.0998954916027086e-08 0.0000000000000000e+00  -7.0191826992339095e-08 -4.4348684019912766e-08 0.0000000000000000e+00  -9.8457050883013215e-08 -4.8055316938488607e-08 0.0000000000000000e+00  -1.2370489122153608e-07 -4.5832582183734268e-08 0.0000000000000000e+00  -1.4353213138935568e-07 -3.6763487119784239e-08 0.0000000000000000e+00  -1.6175826898118510e-07 -2.3532120642232349e-08 0.0000000000000000e+00  -1.7773020345769125e-07 -7.5167412635935965e-09 0.0000000000000000e+00  -1.9236857852144272e-07 1.0216614450772134e-08 0.0000000000000000e+00  -2.0620622488351225e-07 2.8989754865656850e-08 0.0000000000000000e+00  -2.1963740723804415e-07 4.8468122570623637e-08 0.0000000000000000e+00  -2.3307766863135658e-07 6.8517867386449782e-08 0.0000000000000000e+00  -2.4694039903883935e-07 8.9033214167634950e-08 0.0000000000000000e+00  -2.6166745160552316e-07 1.0968520881482126e-07 0.0000000000000000e+00  -2.7764017428544522e-07 1.2966049183970380e-07 0.0000000000000000e+00  -2.9498645852250486e-07 1.4749651244647114e-07 0.0000000000000000e+00  -3.1333781621015559e-07 1.6114417563562176e-07 0.0000000000000000e+00  -3.3164904318479644e-07 1.6832175998628563e-07 0.0000000000000000e+00  -3.4822640622464058e-07 1.6707726713441730e-07 0.0000000000000000e+00  -3.6101057736505866e-07 1.5634361358417087e-07 0.0000000000000000e+00  -3.6807135688007643e-07 1.3625116954166788e-07 0.0000000000000000e+00  -3.6806175832456979e-07 1.0808233753058062e-07 0.0000000000000000e+00  -3.6057367298732822e-07 7.3913867760376424e-08 0.0000000000000000e+00  -3.4603965420431854e-07 3.6131751511761874e-08 0.0000000000000000e+00  -3.2577238493495603e-07 -3.0367943193956085e-09 0.0000000000000000e+00  -3.0115770981404528e-07 -4.1766179836056961e-08 0.0000000000000000e+00  -2.7437094992925622e-07 -7.8826312964183335e-08 0.0000000000000000e+00  -2.4612831445823463e-07 -1.1330425185077860e-07 0.0000000000000000e+00  -2.1973352539001084e-07 -1.449366800380