<?xml version="1.0"?>
<VTKFile type="UnstructuredGrid"  version="0.1"  >
<UnstructuredGrid>
<Piece  NumberOfPoints="1617" NumberOfCells="3072">
<Points>
<DataArray  type="Float64"  NumberOfComponents="3"  format="ascii">0 0 0  0.03125 0 0  0.0625 0 0  0.09375 0 0  0.125 0 0  0.15625 0 0  0.1875 0 0  0.21875 0 0  0.25 0 0  0.28125 0 0  0.3125 0 0  0.34375 0 0  0.375 0 0  0.40625 0 0  0.4375 0 0  0.46875 0 0  0.5 0 0  0.53125 0 0  0.5625 0 0  0.59375 0 0  0.625 0 0  0.65625 0 0  0.6875 0 0  0.71875 0 0  0.75 0 0  0.78125 0 0  0.8125 0 0  0.84375 0 0  0.875 0 0  0.90625 0 0  0.9375 0 0  0.96875 0 0  1 0 0  1.03125 0 0  1.0625 0 0  1.09375 0 0  1.125 0 0  1.15625 0 0  1.1875 0 0  1.21875 0 0  1.25 0 0  1.28125 0 0  1.3125 0 0  1.34375 0 0  1.375 0 0  1.40625 0 0  1.4375 0 0  1.46875 0 0  1.5 0 0  0 0.03125 0  0.03125 0.03125 0  0.0625 0.03125 0  0.09375 0.03125 0  0.125 0.03125 0  0.15625 0.03125 0  0.1875 0.03125 0  0.21875 0.03125 0  0.25 0.03125 0  0.28125 0.03125 0  0.3125 0.03125 0  0.34375 0.03125 0  0.375 0.03125 0  0.40625 0.03125 0  0.4375 0.03125 0  0.46875 0.03125 0  0.5 0.03125 0  0.53125 0.03125 0  0.5625 0.03125 0  0.59375 0.03125 0  0.625 0.03125 0  0.65625 0.03125 0  0.6875 0.03125 0  0.71875 0.03125 0  0.75 0.03125 0  0.78125 0.03125 0  0.8125 0.03125 0  0.84375 0.03125 0  0.875 0.03125 0  0.90625 0.03125 0  0.9375 0.03125 0  0.96875 0.03125 0  1 0.03125 0  1.03125 0.03125 0  1.0625 0.03125 0  1.09375 0.03125 0  1.125 0.03125 0  1.15625 0.03125 0  1.1875 0.03125 0  1.21875 0.03125 0  1.25 0.03125 0  1.28125 0.03125 0  1.3125 0.03125 0  1.34375 0.03125 0  1.375 0.03125 0  1.40625 0.03125 0  1.4375 0.03125 0  1.46875 0.03125 0  1.5 0.03125 0  0 0.0625 0  0.03125 0.0625 0  0.0625 0.0625 0  0.09375 0.0625 0  0.125 0.0625 0  0.15625 0.0625 0  0.1875 0.0625 0  0.21875 0.0625 0  0.25 0.0625 0  0.28125 0.0625 0  0.3125 0.0625 0  0.34375 0.0625 0  0.375 0.0625 0  0.40625 0.0625 0  0.4375 0.0625 0  0.46875 0.0625 0  0.5 0.0625 0  0.53125 0.0625 0  0.5625 0.0625 0  0.59375 0.0625 0  0.625 0.0625 0  0.65625 0.0625 0  0.6875 0.0625 0  0.71875 0.0625 0  0.75 0.0625 0  0.78125 0.0625 0  0.8125 0.0625 0  0.84375 0.0625 0  0.875 0.0625 0  0.90625 0.0625 0  0.9375 0.0625 0  0.96875 0.0625 0  1 0.0625 0  1.03125 0.0625 0  1.0625 0.0625 0  1.09375 0.0625 0  1.125 0.0625 0  1.15625 0.0625 0  1.1875 0.0625 0  1.21875 0.0625 0  1.25 0.0625 0  1.28125 0.0625 0  1.3125 0.0625 0  1.34375 0.0625 0  1.375 0.0625 0  1.40625 0.0625 0  1.4375 0.0625 0  1.46875 0.0625 0  1.5 0.0625 0  0 0.09375 0  0.03125 0.09375 0  0.0625 0.09375 0  0.09375 0.09375 0  0.125 0.09375 0  0.15625 0.09375 0  0.1875 0.09375 0  0.21875 0.09375 0  0.25 0.09375 0  0.28125 0.09375 0  0.3125 0.09375 0  0.34375 0.09375 0  0.375 0.09375 0  0.40625 0.09375 0  0.4375 0.09375 0  0.46875 0.09375 0  0.5 0.09375 0  0.53125 0.09375 0  0.5625 0.09375 0  0.59375 0.09375 0  0.625 0.09375 0  0.65625 0.09375 0  0.6875 0.09375 0  0.71875 0.09375 0  0.75 0.09375 0  0.78125 0.09375 0  0.8125 0.09375 0  0.84375 0.09375 0  0.875 0.09375 0  0.90625 0.09375 0  0.9375 0.09375 0  0.96875 0.09375 0  1 0.09375 0  1.03125 0.09375 0  1.0625 0.09375 0  1.09375 0.09375 0  1.125 0.09375 0  1.15625 0.09375 0  1.1875 0.09375 0  1.21875 0.09375 0  1.25 0.09375 0  1.28125 0.09375 0  1.3125 0.09375 0  1.34375 0.09375 0  1.375 0.09375 0  1.40625 0.09375 0  1.4375 0.09375 0  1.46875 0.09375 0  1.5 0.09375 0  0 0.125 0  0.03125 0.125 0  0.0625 0.125 0  0.09375 0.125 0  0.125 0.125 0  0.15625 0.125 0  0.1875 0.125 0  0.21875 0.125 0  0.25 0.125 0  0.28125 0.125 0  0.3125 0.125 0  0.34375 0.125 0  0.375 0.125 0  0.40625 0.125 0  0.4375 0.125 0  0.46875 0.125 0  0.5 0.125 0  0.53125 0.125 0  0.5625 0.125 0  0.59375 0.125 0  0.625 0.125 0  0.65625 0.125 0  0.6875 0.125 0  0.71875 0.125 0  0.75 0.125 0  0.78125 0.125 0  0.8125 0.125 0  0.84375 0.125 0  0.875 0.125 0  0.90625 0.125 0  0.9375 0.125 0  0.96875 0.125 0  1 0.125 0  1.03125 0.125 0  1.0625 0.125 0  1.09375 0.125 0  1.125 0.125 0  1.15625 0.125 0  1.1875 0.125 0  1.21875 0.125 0  1.25 0.125 0  1.28125 0.125 0  1.3125 0.125 0  1.34375 0.125 0  1.375 0.125 0  1.40625 0.125 0  1.4375 0.125 0  1.46875 0.125 0  1.5 0.125 0  0 0.15625 0  0.03125 0.15625 0  0.0625 0.15625 0  0.09375 0.15625 0  0.125 0.15625 0  0.15625 0.15625 0  0.1875 0.15625 0  0.21875 0.15625 0  0.25 0.15625 0  0.28125 0.15625 0  0.3125 0.15625 0  0.34375 0.15625 0  0.375 0.15625 0  0.40625 0.15625 0  0.4375 0.15625 0  0.46875 0.15625 0  0.5 0.15625 0  0.53125 0.15625 0  0.5625 0.15625 0  0.59375 0.15625 0  0.625 0.15625 0  0.65625 0.15625 0  0.6875 0.15625 0  0.71875 0.15625 0  0.75 0.15625 0  0.78125 0.15625 0  0.8125 0.15625 0  0.84375 0.15625 0  0.875 0.15625 0  0.90625 0.15625 0  0.9375 0.15625 0  0.96875 0.15625 0  1 0.15625 0  1.03125 0.15625 0  1.0625 0.15625 0  1.09375 0.15625 0  1.125 0.15625 0  1.15625 0.15625 0  1.1875 0.15625 0  1.21875 0.15625 0  1.25 0.15625 0  1.28125 0.15625 0  1.3125 0.15625 0  1.34375 0.15625 0  1.375 0.15625 0  1.40625 0.15625 0  1.4375 0.15625 0  1.46875 0.15625 0  1.5 0.15625 0  0 0.1875 0  0.03125 0.1875 0  0.0625 0.1875 0  0.09375 0.1875 0  0.125 0.1875 0  0.15625 0.1875 0  0.1875 0.1875 0  0.21875 0.1875 0  0.25 0.1875 0  0.28125 0.1875 0  0.3125 0.1875 0  0.34375 0.1875 0  0.375 0.1875 0  0.40625 0.1875 0  0.4375 0.1875 0  0.46875 0.1875 0  0.5 0.1875 0  0.53125 0.1875 0  0.5625 0.1875 0  0.59375 0.1875 0  0.625 0.1875 0  0.65625 0.1875 0  0.6875 0.1875 0  0.71875 0.1875 0  0.75 0.1875 0  0.78125 0.1875 0  0.8125 0.1875 0  0.84375 0.1875 0  0.875 0.1875 0  0.90625 0.1875 0  0.9375 0.1875 0  0.96875 0.1875 0  1 0.1875 0  1.03125 0.1875 0  1.0625 0.1875 0  1.09375 0.1875 0  1.125 0.1875 0  1.15625 0.1875 0  1.1875 0.1875 0  1.21875 0.1875 0  1.25 0.1875 0  1.28125 0.1875 0  1.3125 0.1875 0  1.34375 0.1875 0  1.375 0.1875 0  1.40625 0.1875 0  1.4375 0.1875 0  1.46875 0.1875 0  1.5 0.1875 0  0 0.21875 0  0.03125 0.21875 0  0.0625 0.21875 0  0.09375 0.21875 0  0.125 0.21875 0  0.15625 0.21875 0  0.1875 0.21875 0  0.21875 0.21875 0  0.25 0.21875 0  0.28125 0.21875 0  0.3125 0.21875 0  0.34375 0.21875 0  0.375 0.21875 0  0.40625 0.21875 0  0.4375 0.21875 0  0.46875 0.21875 0  0.5 0.21875 0  0.53125 0.21875 0  0.5625 0.21875 0  0.59375 0.21875 0  0.625 0.21875 0  0.65625 0.21875 0  0.6875 0.21875 0  0.71875 0.21875 0  0.75 0.21875 0  0.78125 0.21875 0  0.8125 0.21875 0  0.84375 0.21875 0  0.875 0.21875 0  0.90625 0.21875 0  0.9375 0.21875 0  0.96875 0.21875 0  1 0.21875 0  1.03125 0.21875 0  1.0625 0.21875 0  1.09375 0.21875 0  1.125 0.21875 0  1.15625 0.21875 0  1.1875 0.21875 0  1.21875 0.21875 0  1.25 0.21875 0  1.28125 0.21875 0  1.3125 0.21875 0  1.34375 0.21875 0  1.375 0.21875 0  1.40625 0.21875 0  1.4375 0.21875 0  1.46875 0.21875 0  1.5 0.21875 0  0 0.25 0  0.03125 0.25 0  0.0625 0.25 0  0.09375 0.25 0  0.125 0.25 0  0.15625 0.25 0  0.1875 0.25 0  0.21875 0.25 0  0.25 0.25 0  0.28125 0.25 0  0.3125 0.25 0  0.34375 0.25 0  0.375 0.25 0  0.40625 0.25 0  0.4375 0.25 0  0.46875 0.25 0  0.5 0.25 0  0.53125 0.25 0  0.5625 0.25 0  0.59375 0.25 0  0.625 0.25 0  0.65625 0.25 0  0.6875 0.25 0  0.71875 0.25 0  0.75 0.25 0  0.78125 0.25 0  0.8125 0.25 0  0.84375 0.25 0  0.875 0.25 0  0.90625 0.25 0  0.9375 0.25 0  0.96875 0.25 0  1 0.25 0  1.03125 0.25 0  1.0625 0.25 0  1.09375 0.25 0  1.125 0.25 0  1.15625 0.25 0  1.1875 0.25 0  1.21875 0.25 0  1.25 0.25 0  1.28125 0.25 0  1.3125 0.25 0  1.34375 0.25 0  1.375 0.25 0  1.40625 0.25 0  1.4375 0.25 0  1.46875 0.25 0  1.5 0.25 0  0 0.28125 0  0.03125 0.28125 0  0.0625 0.28125 0  0.09375 0.28125 0  0.125 0.28125 0  0.15625 0.28125 0  0.1875 0.28125 0  0.21875 0.28125 0  0.25 0.28125 0  0.28125 0.28125 0  0.3125 0.28125 0  0.34375 0.28125 0  0.375 0.28125 0  0.40625 0.28125 0  0.4375 0.28125 0  0.46875 0.28125 0  0.5 0.28125 0  0.53125 0.28125 0  0.5625 0.28125 0  0.59375 0.28125 0  0.625 0.28125 0  0.65625 0.28125 0  0.6875 0.28125 0  0.71875 0.28125 0  0.75 0.28125 0  0.78125 0.28125 0  0.8125 0.28125 0  0.84375 0.28125 0  0.875 0.28125 0  0.90625 0.28125 0  0.9375 0.28125 0  0.96875 0.28125 0  1 0.28125 0  1.03125 0.28125 0  1.0625 0.28125 0  1.09375 0.28125 0  1.125 0.28125 0  1.15625 0.28125 0  1.1875 0.28125 0  1.21875 0.28125 0  1.25 0.28125 0  1.28125 0.28125 0  1.3125 0.28125 0  1.34375 0.28125 0  1.375 0.28125 0  1.40625 0.28125 0  1.4375 0.28125 0  1.46875 0.28125 0  1.5 0.28125 0  0 0.3125 0  0.03125 0.3125 0  0.0625 0.3125 0  0.09375 0.3125 0  0.125 0.3125 0  0.15625 0.3125 0  0.1875 0.3125 0  0.21875 0.3125 0  0.25 0.3125 0  0.28125 0.3125 0  0.3125 0.3125 0  0.34375 0.3125 0  0.375 0.3125 0  0.40625 0.3125 0  0.4375 0.3125 0  0.46875 0.3125 0  0.5 0.3125 0  0.53125 0.3125 0  0.5625 0.3125 0  0.59375 0.3125 0  0.625 0.3125 0  0.65625 0.3125 0  0.6875 0.3125 0  0.71875 0.3125 0  0.75 0.3125 0  0.78125 0.3125 0  0.8125 0.3125 0  0.84375 0.3125 0  0.875 0.3125 0  0.90625 0.3125 0  0.9375 0.3125 0  0.96875 0.3125 0  1 0.3125 0  1.03125 0.3125 0  1.0625 0.3125 0  1.09375 0.3125 0  1.125 0.3125 0  1.15625 0.3125 0  1.1875 0.3125 0  1.21875 0.3125 0  1.25 0.3125 0  1.28125 0.3125 0  1.3125 0.3125 0  1.34375 0.3125 0  1.375 0.3125 0  1.40625 0.3125 0  1.4375 0.3125 0  1.46875 0.3125 0  1.5 0.3125 0  0 0.34375 0  0.03125 0.34375 0  0.0625 0.34375 0  0.09375 0.34375 0  0.125 0.34375 0  0.15625 0.34375 0  0.1875 0.34375 0  0.21875 0.34375 0  0.25 0.34375 0  0.28125 0.34375 0  0.3125 0.34375 0  0.34375 0.34375 0  0.375 0.34375 0  0.40625 0.34375 0  0.4375 0.34375 0  0.46875 0.34375 0  0.5 0.34375 0  0.53125 0.34375 0  0.5625 0.34375 0  0.59375 0.34375 0  0.625 0.34375 0  0.65625 0.34375 0  0.6875 0.34375 0  0.71875 0.34375 0  0.75 0.34375 0  0.78125 0.34375 0  0.8125 0.34375 0  0.84375 0.34375 0  0.875 0.34375 0  0.90625 0.34375 0  0.9375 0.34375 0  0.96875 0.34375 0  1 0.34375 0  1.03125 0.34375 0  1.0625 0.34375 0  1.09375 0.34375 0  1.125 0.34375 0  1.15625 0.34375 0  1.1875 0.34375 0  1.21875 0.34375 0  1.25 0.34375 0  1.28125 0.34375 0  1.3125 0.34375 0  1.34375 0.34375 0  1.375 0.34375 0  1
[...]
<PointData  Vectors="f_17"> 
<DataArray  type="Float64"  Name="f_17"  NumberOfComponents="3" format="ascii">0.0000000000000000e+00 0.0000000000000000e+00 0.0000000000000000e+00  0.0000000000000000e+00 0.0000000000000000e+00 0.0000000000000000e+00  0.0000000000000000e+00 0.0000000000000000e+00 0.0000000000000000e+00  0.0000000000000000e+00 0.0000000000000000e+00 0.0000000000000000e+00  0.0000000000000000e+00 0.0000000000000000e+00 0.0000000000000000e+00  0.0000000000000000e+00 0.0000000000000000e+00 0.0000000000000000e+00  0.0000000000000000e+00 0.0000000000000000e+00 0.0000000000000000e+00  0.0000000000000000e+00 0.0000000000000000e+00 0.0000000000000000e+00  0.0000000000000000e+00 0.0000000000000000e+00 0.0000000000000000e+00  0.0000000000000000e+00 0.0000000000000000e+00 0.0000000000000000e+00  0.0000000000000000e+00 0.0000000000000000e+00 0.0000000000000000e+00  0.0000000000000000e+00 0.0000000000000000e+00 0.0000000000000000e+00  0.0000000000000000e+00 0.0000000000000000e+00 0.0000000000000000e+00  0.0000000000000000e+00 0.0000000000000000e+00 0.0000000000000000e+00  0.0000000000000000e+00 0.0000000000000000e+00 0.0000000000000000e+00  0.0000000000000000e+00 0.0000000000000000e+00 0.0000000000000000e+00  0.0000000000000000e+00 0.0000000000000000e+00 0.0000000000000000e+00  0.0000000000000000e+00 0.0000000000000000e+00 0.0000000000000000e+00  0.0000000000000000e+00 0.0000000000000000e+00 0.0000000000000000e+00  0.0000000000000000e+00 0.0000000000000000e+00 0.0000000000000000e+00  0.0000000000000000e+00 0.0000000000000000e+00 0.0000000000000000e+00  0.0000000000000000e+00 0.0000000000000000e+00 0.0000000000000000e+00  0.0000000000000000e+00 0.0000000000000000e+00 0.0000000000000000e+00  0.0000000000000000e+00 0.0000000000000000e+00 0.0000000000000000e+00  0.0000000000000000e+00 0.0000000000000000e+00 0.0000000000000000e+00  0.0000000000000000e+00 0.0000000000000000e+00 0.0000000000000000e+00  0.0000000000000000e+00 0.0000000000000000e+00 0.0000000000000000e+00  0.0000000000000000e+00 0.0000000000000000e+00 0.0000000000000000e+00  0.0000000000000000e+00 0.0000000000000000e+00 0.0000000000000000e+00  0.0000000000000000e+00 0.0000000000000000e+00 0.0000000000000000e+00  0.0000000000000000e+00 0.0000000000000000e+00 0.0000000000000000e+00  0.0000000000000000e+00 0.0000000000000000e+00 0.0000000000000000e+00  0.0000000000000000e+00 0.0000000000000000e+00 0.0000000000000000e+00  0.0000000000000000e+00 0.0000000000000000e+00 0.0000000000000000e+00  0.0000000000000000e+00 0.0000000000000000e+00 0.0000000000000000e+00  0.0000000000000000e+00 0.0000000000000000e+00 0.0000000000000000e+00  0.0000000000000000e+00 0.0000000000000000e+00 0.0000000000000000e+00  0.0000000000000000e+00 0.0000000000000000e+00 0.0000000000000000e+00  0.0000000000000000e+00 0.0000000000000000e+00 0.0000000000000000e+00  0.0000000000000000e+00 0.0000000000000000e+00 0.0000000000000000e+00  0.0000000000000000e+00 0.0000000000000000e+00 0.0000000000000000e+00  0.0000000000000000e+00 0.0000000000000000e+00 0.0000000000000000e+00  0.0000000000000000e+00 0.0000000000000000e+00 0.0000000000000000e+00  0.0000000000000000e+00 0.0000000000000000e+00 0.0000000000000000e+00  0.0000000000000000e+00 0.0000000000000000e+00 0.0000000000000000e+00  0.0000000000000000e+00 0.0000000000000000e+00 0.0000000000000000e+00  0.0000000000000000e+00 0.0000000000000000e+00 0.0000000000000000e+00  0.0000000000000000e+00 0.0000000000000000e+00 0.0000000000000000e+00  0.0000000000000000e+00 0.0000000000000000e+00 0.0000000000000000e+00  0.0000000000000000e+00 0.0000000000000000e+00 0.0000000000000000e+00  2.1667586141776372e-07 1.6091939598909372e-08 0.0000000000000000e+00  -1.3995596780441464e-07 1.0393033007509401e-07 0.0000000000000000e+00  -1.4253909236357290e-07 -1.9237783641999262e-08 0.0000000000000000e+00  -3.5017462987477352e-07 -6.0839376786070101e-08 0.0000000000000000e+00  -3.3626411440513535e-07 -8.8491433705542331e-08 0.0000000000000000e+00  -3.2327862028588277e-07 -9.3695249748406505e-08 0.0000000000000000e+00  -3.1172606732410199e-07 -8.6510349427889368e-08 0.0000000000000000e+00  -2.8822765261258422e-07 -7.6774881531665100e-08 0.0000000000000000e+00  -2.6534094245322133e-07 -6.6032394047352019e-08 0.0000000000000000e+00  -2.4351901081429391e-07 -5.5433525862890439e-08 0.0000000000000000e+00  -2.2414188240256068e-07 -4.5361254955083931e-08 0.0000000000000000e+00  -2.0847350486838926e-07 -3.5862798337763146e-08 0.0000000000000000e+00  -1.9697068672135602e-07 -2.6942156827738444e-08 0.0000000000000000e+00  -1.8998823395559826e-07 -1.8551794160446893e-08 0.0000000000000000e+00  -1.8773467292867870e-07 -1.0619620711159265e-08 0.0000000000000000e+00  -1.9033225104974640e-07 -3.0705906130084603e-09 0.0000000000000000e+00  -1.9785953467411578e-07 4.1485990845561186e-09 0.0000000000000000e+00  -2.1034126918444618e-07 1.1038880760208166e-08 0.0000000000000000e+00  -2.2771416184478450e-07 1.7519407818063223e-08 0.0000000000000000e+00  -2.4976477314371209e-07 2.3408875053742270e-08 0.0000000000000000e+00  -2.7605267364470705e-07 2.8427571903224468e-08 0.0000000000000000e+00  -3.0584171188079246e-07 3.2226516904198863e-08 0.0000000000000000e+00  -3.3806119609274915e-07 3.4441792808279673e-08 0.0000000000000000e+00  -3.7132228550448022e-07 3.4762458185442807e-08 0.0000000000000000e+00  -4.0398650744445670e-07 3.2993855264061318e-08 0.0000000000000000e+00  -4.3429746276206000e-07 2.9097337083890974e-08 0.0000000000000000e+00  -4.6050702406607994e-07 2.3197484953174555e-08 0.0000000000000000e+00  -4.8105408943617003e-07 1.5551773356748827e-08 0.0000000000000000e+00  -4.9458352262453872e-07 6.5071483968457247e-09 0.0000000000000000e+00  -5.0017355150393545e-07 -3.5748257245568806e-09 0.0000000000000000e+00  -4.9697880285382461e-07 -1.4328101151301854e-08 0.0000000000000000e+00  -4.8494420756997976e-07 -2.5509275398023146e-08 0.0000000000000000e+00  -4.6319978050249860e-07 -3.6796002584668517e-08 0.0000000000000000e+00  -4.3321643412021985e-07 -4.8270441979684322e-08 0.0000000000000000e+00  -3.9209910919233436e-07 -5.9301469959120331e-08 0.0000000000000000e+00  -3.4631587624851911e-07 -7.0965493450231895e-08 0.0000000000000000e+00  -2.8325509345943787e-07 -8.0583749060606761e-08 0.0000000000000000e+00  -2.2972870614499671e-07 -9.3562488767719083e-08 0.0000000000000000e+00  -1.3183839679859886e-07 -9.7404825888493468e-08 0.0000000000000000e+00  -1.0070503963372174e-07 -1.1745683061227848e-07 0.0000000000000000e+00  8.7534341738706712e-08 -9.7054697201252359e-08 0.0000000000000000e+00  -2.1545212690185736e-08 -1.5032000091814654e-07 0.0000000000000000e+00  4.7388063722495383e-07 -3.0908134823014009e-08 0.0000000000000000e+00  -2.5395049984969324e-07 -2.3384770106489711e-07 0.0000000000000000e+00  1.3142329185588029e-06 2.5015435537970652e-07 0.0000000000000000e+00  -2.4223965829114438e-06 -7.4246874375423201e-07 0.0000000000000000e+00  2.7100452407470827e-06 1.3753799791988479e-06 0.0000000000000000e+00  0.0000000000000000e+00 0.0000000000000000e+00 0.0000000000000000e+00  0.0000000000000000e+00 0.0000000000000000e+00 0.0000000000000000e+00  -1.1339676403566007e-06 7.2155832667194480e-07 0.0000000000000000e+00  8.4722247830868530e-07 -4.9990580895290740e-09 0.0000000000000000e+00  -1.5832916132048907e-07 1.1720433195902291e-07 0.0000000000000000e+00  -3.3960200844930828e-07 -1.7627765191831220e-08 0.0000000000000000e+00  -3.5639568414201741e-07 -7.6338131611750028e-08 0.0000000000000000e+00  -4.1683709414933224e-07 -1.0277380836943344e-07 0.0000000000000000e+00  -4.1445241665255962e-07 -1.1032950430219896e-07 0.0000000000000000e+00  -3.9987517235252184e-07 -1.0771758333703168e-07 0.0000000000000000e+00  -3.7993958967148547e-07 -9.9326355510007752e-08 0.0000000000000000e+00  -3.5648036014919539e-07 -8.7919821542522030e-08 0.0000000000000000e+00  -3.3437501684411522e-07 -7.4880770458488843e-08 0.0000000000000000e+00  -3.1497866498582893e-07 -6.1044414990106110e-08 0.0000000000000000e+00  -2.9933909991785305e-07 -4.6921350839638554e-08 0.0000000000000000e+00  -2.8813614824399937e-07 -3.2796439429487913e-08 0.0000000000000000e+00  -2.8170907699604101e-07 -1.8811592724725793e-08 0.0000000000000000e+00  -2.8026636769163561e-07 -5.0284218217054956e-09 0.0000000000000000e+00  -2.8391413503052143e-07 8.5074251476330115e-09 0.0000000000000000e+00  -2.9267716331211653e-07 2.1693736007263047e-08 0.0000000000000000e+00  -3.0647793907275925e-07 3.4300897944342078e-08 0.0000000000000000e+00  -3.2507396875279077e-07 4.5920364471408260e-08 0.0000000000000000e+00  -3.4797196125549063e-07 5.5954239882753001e-08 0.0000000000000000e+00  -3.7434538416023761e-07 6.3662664921776502e-08 0.0000000000000000e+00  -4.0298694510794066e-07 6.8268756249654877e-08 0.0000000000000000e+00  -4.3233164988090527e-07 6.9098608448023304e-08 0.0000000000000000e+00  -4.6054950498366802e-07 6.5717047161411370e-08 0.0000000000000000e+00  -4.8571738951291227e-07 5.8016874935693006e-08 0.0000000000000000e+00  -5.0598300946792926e-07 4.6237809579420520e-08 0.0000000000000000e+00  -5.1977714651224210e-07 3.0908565123936371e-08 0.0000000000000000e+00  -5.2583116044756921e-07 1.2749570012454958e-08 0.0000000000000000e+00  -5.2340985247747755e-07 -7.4651989683102309e-09 0.0000000000000000e+00  -5.1189685362613368e-07 -2.8970765077855096e-08 0.0000000000000000e+00  -4.9154178395432156e-07 -5.1173043777980553e-08 0.0000000000000000e+00  -4.6172629885976355e-07 -7.3457964882228778e-08 0.0000000000000000e+00  -4.2430759240801372e-07 -9.5657676227031046e-08 0.0000000000000000e+00  -3.7657823025212263e-07 -1.1693728579491285e-07 0.0000000000000000e+00  -3.2559692177644202e-07 -1.3808235477087290e-07 0.0000000000000000e+00  -2.5883104337888204e-07 -1.5626657132038660e-07 0.0000000000000000e+00  -2.0418232150884069e-07 -1.7610568571326789e-07 0.0000000000000000e+00  -1.0787212964128063e-07 -1.8545646070831578e-07 0.0000000000000000e+00  -8.2688602855125929e-08 -2.0658844270318225e-07 0.0000000000000000e+00  9.3449514359737967e-08 -1.8694868791391940e-07 0.0000000000000000e+00  -3.3819379714228860e-08 -2.2796022718426166e-07 0.0000000000000000e+00  4.2454332143027536e-07 -1.0840016364870124e-07 0.0000000000000000e+00  -3.3511026082167514e-07 -2.7109620572507157e-07 0.0000000000000000e+00  1.0918503415420717e-06 1.8028549701286858e-07 0.0000000000000000e+00  -2.5043235676766264e-06 -5.8184428212510803e-07 0.0000000000000000e+00  2.5433664312201201e-06 1.4430096997292351e-06 0.0000000000000000e+00  0.0000000000000000e+00 0.0000000000000000e+00 0.0000000000000000e+00  0.0000000000000000e+00 0.0000000000000000e+00 0.0000000000000000e+00  -2.1964365711034168e-06 1.2006364987720500e-06 0.0000000000000000e+00  1.8422735040524982e-06 -8.5359208237044014e-08 0.0000000000000000e+00  -3.9515531019465265e-07 2.9411424440846980e-07 0.0000000000000000e+00  -1.3962859285545253e-08 1.6329893889205755e-08 0.0000000000000000e+00  -1.6454192040385048e-07 -2.6543102002377179e-08 0.0000000000000000e+00  -2.2970193207637513e-07 -8.6537383311093446e-08 0.0000000000000000e+00  -2.4926443409021164e-07 -1.0977582600845005e-07 0.0000000000000000e+00  -2.7613236546405830e-07 -1.1699254885092100e-07 0.0000000000000000e+00  -2.8582834908008348e-07 -1.1345068489778468e-07 0.0000000000000000e+00  -2.8942089136037357e-07 -1.0332636314072599e-07 0.0000000000000000e+00  -2.8958863571830576e-07 -8.9351943649790523e-08 0.0000000000000000e+00  -2.8777395887033864e-07 -7.3189353587733178e-08 0.0000000000000000e+00  -2.8595014205929032e-07 -5.5897769452986051e-08 0.0000000000000000e+00  -2.8514406485143672e-07 -3.8113299710946528e-08 0.0000000000000000e+00  -2.8613452896513305e-07 -2.0192786539027725e-08 0.0000000000000000e+00  -2.8948096049672088e-07 -2.3181866588541731e-09 0.0000000000000000e+00  -2.9557322962848591e-07 1.5400091545508612e-08 0.0000000000000000e+00  -3.0469458513070679e-07 3.2806940809984743e-08 0.0000000000000000e+00  -3.1700990072440038e-07 4.9584269414304069e-08 0.0000000000000000e+00  -3.3251113730403750e-07 6.5155411986990609e-08 0.0000000000000000e+00  -3.5092359242144101e-07 7.8651213576065876e-08 0.0000000000000000e+00  -3.7160687922562362e-07 8.8971233000906770e-08 0.0000000000000000e+00  -3.9349633146006155e-07 9.4945647269585625e-08 0.0000000000000000e+00  -4.1513527902837293e-07 9.5562099447577921e-08 0.0000000000000000e+00  -4.3480284342355903e-07 9.0188274732735620e-08 0.0000000000000000e+00  -4.5073969805412576e-07 7.8715052659977967e-08 0.0000000000000000e+00  -4.6136080630314707e-07 6.1577486397676859e-08 0.0000000000000000e+00  -4.6549655141222861e-07 3.9649695665005375e-08 0.0000000000000000e+00  -4.6239613797154338e-07 1.4073253152708350e-08 0.0000000000000000e+00  -4.5193451207007356e-07 -1.3957291695419999e-08 0.0000000000000000e+00  -4.3412640060683574e-07 -4.3309819277476599e-08 0.0000000000000000e+00  -4.0987143905027647e-07 -7.3105001328049464e-08 0.0000000000000000e+00  -3.7911387914551333e-07 -1.0251464717350179e-07 0.0000000000000000e+00  -3.4432950773857321e-07 -1.3121541367302325e-07 0.0000000000000000e+00  -3.0322208869806816e-07 -1.5822187499975351e-07 0.0000000000000000e+00  -2.6356823989102661e-07 -1.8415186915313111e-07 0.0000000000000000e+00  -2.1302610904774157e-07 -2.0596453056391588e-07 0.0000000000000000e+00  -1.8059570338510850e-07 -2.2785480684400103e-07 0.0000000000000000e+00  -1.1232576071226900e-07 -2.3757892250457882e-07 0.0000000000000000e+00  -1.2235934645390370e-07 -2.5599907838150142e-07 0.0000000000000000e+00  1.0988100294899794e-08 -2.3295315824965790e-07 0.0000000000000000e+00  -1.6316615573412430e-07 -2.6359997506872706e-07 0.0000000000000000e+00  2.3234760144834761e-07 -1.4611750402175132e-07 0.0000000000000000e+00  -5.6493013602240257e-07 -2.8628483308184234e-07 0.0000000000000000e+00  7.7308780359716603e-07 1.1538908783049516e-07 0.0000000000000000e+00  -2.7457635353365165e-06 -5.3323850506032193e-07 0.0000000000000000e+00  2.1466614288001081e-06 1.2316051053958212e-06 0.0000000000000000e+00  0.0000000000000000e+00 0.0000000000000000e+00 0.0000000000000000e+00  0.0000000000000000e+00 0.0000000000000000e+00 0.0000000000000000e+00  -2.4472927982428996e-06 1.2411574116406026e-06 0.0000000000000000e+00  2.4672894597644808e-06 -1.0973217144219950e-07 0.0000000000000000e+00  -6.8396453815032732e-07 3.8410703083523726e-07 0.0000000000000000e+00  2.7991368363169551e-07 3.9690378699333048e-08 0.0000000000000000e+00  -1.5349641075906875e-07 5.2190405719553231e-08 0.0000000000000000e+00  -1.0504096934155181e-07 -4.2326721171689422e-08 0.0000000000000000e+00  -1.5737998458961195e-07 -7.1716677775355483e-08 0.0000000000000000e+00  -1.9492319169457679e-07 -9.3619441597848571e-08 0.0000000000000000e+00  -2.1570633652511452e-07 -9.9151038502616637e-08 0.0000000000000000e+00  -2.3435161092565917e-07 -9.5516912888523803e-08 0.0000000000000000e+00  -2.4649064729780535e-07 -8.5441916346459628e-08 0.0000000000000000e+00  -2.5535129844435758e-07 -7.1211331741160299e-08 0.0000000000000000e+00  -2.6236032042097466e-07 -5.4434863297138248e-08 0.0000000000000000e+00  -2.6845881976841189e-07 -3.6150932603925851e-08 0.0000000000000000e+00  -2.7456230632015997e-07 -1.7023826898531338e-08 0.0000000000000000e+00  -2.8127877569830661e-07 2.5670893806401176e-09 0.0000000000000000e+00  -2.8909998748940173e-07 2.2391722505217384e-08 0.0000000000000000e+00  -2.9843584411481079e-07 4.2215100812780679e-08 0.0000000000000000e+00  -3.0961192128897165e-07 6.1622494293624752e-08 0.0000000000000000e+00  -3.2281165203238268e-07 7.9860251224980553e-08 0.0000000000000000e+00  -3.3795084834748821e-07 9.5758409690045414e-08 0.0000000000000000e+00  -3.5453439168720983e-07 1.0779892126185456e-07 0.0000000000000000e+00  -3.7156193904586002e-07 1.1435088566214687e-07 0.0000000000000000e+00  -3.8756315358723551e-07 1.1401890352277256e-07 0.0000000000000000e+00  -4.0077869854589972e-07 1.0598627162378350e-07 0.0000000000000000e+00  -4.0947668580254495e-07 9.0224126328255239e-08 0.0000000000000000e+00  -4.1224674665791252e-07 6.7496403074536256e-08 0.0000000000000000e+00  -4.0828721567378117e-07 3.9169262397359007e-08 0.0000000000000000e+00  -3.9737566009676495e-07 6.9246569878511651e-09 0.0000000000000000e+00  -3.8003167668620970e-07 -2.7554282299808655e-08 0.0000000000000000e+00  -3.5690072781181243e-07 -6.2757063654804882e-08 0.0000000000000000e+00  -3.2951880978337379e-07 -9.7546061639905057e-08 0.0000000000000000e+00  -2.9825479024412159e-07 -1.3093230159774570e-07 0.0000000000000000e+00  -2.6612174386470917e-07 -1.6247585766797361e-07 0.0000000000000000e+00  -2.3082813716807773e-07 -1.9109919058906092e-07 0.0000000000000000e+00  -2.0087093630192021e-07 -2.1723975936580452e-07 0.0000000000000000e+00  -1.6299720023790927e-07 -2.3776716675856560e-07 0.0000000000000000e+00  -1.4803630456156594e-07 -2.5638042966334844e-07 0.0000000000000000e+00  -9.8383440715239342e-08 -2.6125607891626636e-07 0.0000000000000000e+00  -1.3385654040754467e-07 -2.7172181829604011e-07 0.0000000000000000e+00  -2.0576273112109485e-08 -2.4158972810202464e-07 0.0000000000000000e+00  -2.2686787577210305e-07 -2.5950742320186981e-07 0.0000000000000000e+00  1.6040613887879693e-07 -1.4431101433191833e-07 0.0000000000000000e+00  -6.6859824573845828e-07 -2.6588074138181025e-07 0.0000000000000000e+00  6.9699760010604486e-07 8.9270334331726926e-08 0.0000000000000000e+00  -2.8142129973032608e-06 -4.8231153794484858e-07 0.0000000000000000e+00  2.1264958676300424e-06 1.0712658291785991e-06 0.0000000000000000e+00  0.0000000000000000e+00 0.0000000000000000e+00 0.0000000000000000e+00  0.0000000000000000e+00 0.0000000000000000e+00 0.0000000000000000e+00  -2.3949055069622506e-06 1.1307620324775091e-06 0.0000000000000000e+00  2.7170555543645953e-06 -9.2423398776221093e-08 0.0000000000000000e+00  -8.1617914445087507e-07 3.8928872330983945e-07 0.0000000000000000e+00  5.0639426056222190e-07 5.9404882891742248e-08 0.0000000000000000e+00  -1.8254560701945868e-07 1.1310743025934155e-07 0.0000000000000000e+00  2.9404389623619310e-08 -1.1718871039956524e-09 0.0000000000000000e+00  -8.7510948179652596e-08 -2.5727379288504985e-08 0.0000000000000000e+00  -1.0530513664182270e-07 -6.0704779600525997e-08 0.0000000000000000e+00  -1.3785081601629869e-07 -7.2502237064480908e-08 0.0000000000000000e+00  -1.6562556550297802e-07 -7.5789150689766305e-08 0.0000000000000000e+00  -1.8649737181741377e-07 -7.0355832229479302e-08 0.0000000000000000e+00  -2.0456816637806506e-07 -5.9390560573060608e-08 0.0000000000000000e+00  -2.1945778983771467e-07 -4.4638886069639214e-08 0.0000000000000000e+00  -2.3233188339978154e-07 -2.7450057654281262e-08 0.0000000000000000e+00  -2.4392734759830760e-07 -8.7349092976728905e-09 0.0000000000000000e+00  -2.5479550963845912e-07 1.0970800374937268e-08 0.0000000000000000e+00  -2.6546198521360498e-07 3.1356056299837902e-08 0.0000000000000000e+00  -2.7640613839765417e-07 5.2163555536766304e-08 0.0000000000000000e+00  -2.8809805443637954e-07 7.2946785831052412e-08 0.0000000000000000e+00  -3.0092065608085000e-07 9.2820364349468248e-08 0.0000000000000000e+00  -3.1499342524893883e-07 1.1030393724793966e-07 0.0000000000000000e+00  -3.2994949320321144e-07 1.2338326531055650e-07 0.0000000000000000e+00  -3.4477182033722305e-07 1.2984827428470029e-07 0.0000000000000000e+00  -3.5782563369283712e-07 1.2782892957381250e-07 0.0000000000000000e+00  -3.6712858718512979e-07 1.1632421948687054e-07 0.0000000000000000e+00  -3.7082039503053123e-07 9.5499829850385520e-08 0.0000000000000000e+00  -3.6759243727201333e-07 6.6643501674231967e-08 0.0000000000000000e+00  -3.5703258900389215e-07 3.1820146921363791e-08 0.0000000000000000e+00  -3.3953388639693334e-07 -6.5957890721850450e-09 0.0000000000000000e+00  -3.1635388594722848e-07 -4.6372493688290134e-08 0.0000000000000000e+00  -2.8883043945670966e-07 -8.5652398492588139e-08 0.0000000000000000e+00  -2.5911872162506116e-07 -1.2313927598047398e-07 0.0000000000000000e+00  -2.2795427242656215e-07 -1.5781569707889503e-07 0.0000000000000000e+00  -1.9871032390577232e-07 -1.89271