<?xml version="1.0"?>
<VTKFile type="UnstructuredGrid"  version="0.1"  >
<UnstructuredGrid>
<Piece  NumberOfPoints="1617" NumberOfCells="3072">
<Points>
<DataArray  type="Float64"  NumberOfComponents="3"  format="ascii">0 0 0  0.03125 0 0  0.0625 0 0  0.09375 0 0  0.125 0 0  0.15625 0 0  0.1875 0 0  0.21875 0 0  0.25 0 0  0.28125 0 0  0.3125 0 0  0.34375 0 0  0.375 0 0  0.40625 0 0  0.4375 0 0  0.46875 0 0  0.5 0 0  0.53125 0 0  0.5625 0 0  0.59375 0 0  0.625 0 0  0.65625 0 0  0.6875 0 0  0.71875 0 0  0.75 0 0  0.78125 0 0  0.8125 0 0  0.84375 0 0  0.875 0 0  0.90625 0 0  0.9375 0 0  0.96875 0 0  1 0 0  1.03125 0 0  1.0625 0 0  1.09375 0 0  1.125 0 0  1.15625 0 0  1.1875 0 0  1.21875 0 0  1.25 0 0  1.28125 0 0  1.3125 0 0  1.34375 0 0  1.375 0 0  1.40625 0 0  1.4375 0 0  1.46875 0 0  1.5 0 0  0 0.03125 0  0.03125 0.03125 0  0.0625 0.03125 0  0.09375 0.03125 0  0.125 0.03125 0  0.15625 0.03125 0  0.1875 0.03125 0  0.21875 0.03125 0  0.25 0.03125 0  0.28125 0.03125 0  0.3125 0.03125 0  0.34375 0.03125 0  0.375 0.03125 0  0.40625 0.03125 0  0.4375 0.03125 0  0.46875 0.03125 0  0.5 0.03125 0  0.53125 0.03125 0  0.5625 0.03125 0  0.59375 0.03125 0  0.625 0.03125 0  0.65625 0.03125 0  0.6875 0.03125 0  0.71875 0.03125 0  0.75 0.03125 0  0.78125 0.03125 0  0.8125 0.03125 0  0.84375 0.03125 0  0.875 0.03125 0  0.90625 0.03125 0  0.9375 0.03125 0  0.96875 0.03125 0  1 0.03125 0  1.03125 0.03125 0  1.0625 0.03125 0  1.09375 0.03125 0  1.125 0.03125 0  1.15625 0.03125 0  1.1875 0.03125 0  1.21875 0.03125 0  1.25 0.03125 0  1.28125 0.03125 0  1.3125 0.03125 0  1.34375 0.03125 0  1.375 0.03125 0  1.40625 0.03125 0  1.4375 0.03125 0  1.46875 0.03125 0  1.5 0.03125 0  0 0.0625 0  0.03125 0.0625 0  0.0625 0.0625 0  0.09375 0.0625 0  0.125 0.0625 0  0.15625 0.0625 0  0.1875 0.0625 0  0.21875 0.0625 0  0.25 0.0625 0  0.28125 0.0625 0  0.3125 0.0625 0  0.34375 0.0625 0  0.375 0.0625 0  0.40625 0.0625 0  0.4375 0.0625 0  0.46875 0.0625 0  0.5 0.0625 0  0.53125 0.0625 0  0.5625 0.0625 0  0.59375 0.0625 0  0.625 0.0625 0  0.65625 0.0625 0  0.6875 0.0625 0  0.71875 0.0625 0  0.75 0.0625 0  0.78125 0.0625 0  0.8125 0.0625 0  0.84375 0.0625 0  0.875 0.0625 0  0.90625 0.0625 0  0.9375 0.0625 0  0.96875 0.0625 0  1 0.0625 0  1.03125 0.0625 0  1.0625 0.0625 0  1.09375 0.0625 0  1.125 0.0625 0  1.15625 0.0625 0  1.1875 0.0625 0  1.21875 0.0625 0  1.25 0.0625 0  1.28125 0.0625 0  1.3125 0.0625 0  1.34375 0.0625 0  1.375 0.0625 0  1.40625 0.0625 0  1.4375 0.0625 0  1.46875 0.0625 0  1.5 0.0625 0  0 0.09375 0  0.03125 0.09375 0  0.0625 0.09375 0  0.09375 0.09375 0  0.125 0.09375 0  0.15625 0.09375 0  0.1875 0.09375 0  0.21875 0.09375 0  0.25 0.09375 0  0.28125 0.09375 0  0.3125 0.09375 0  0.34375 0.09375 0  0.375 0.09375 0  0.40625 0.09375 0  0.4375 0.09375 0  0.46875 0.09375 0  0.5 0.09375 0  0.53125 0.09375 0  0.5625 0.09375 0  0.59375 0.09375 0  0.625 0.09375 0  0.65625 0.09375 0  0.6875 0.09375 0  0.71875 0.09375 0  0.75 0.09375 0  0.78125 0.09375 0  0.8125 0.09375 0  0.84375 0.09375 0  0.875 0.09375 0  0.90625 0.09375 0  0.9375 0.09375 0  0.96875 0.09375 0  1 0.09375 0  1.03125 0.09375 0  1.0625 0.09375 0  1.09375 0.09375 0  1.125 0.09375 0  1.15625 0.09375 0  1.1875 0.09375 0  1.21875 0.09375 0  1.25 0.09375 0  1.28125 0.09375 0  1.3125 0.09375 0  1.34375 0.09375 0  1.375 0.09375 0  1.40625 0.09375 0  1.4375 0.09375 0  1.46875 0.09375 0  1.5 0.09375 0  0 0.125 0  0.03125 0.125 0  0.0625 0.125 0  0.09375 0.125 0  0.125 0.125 0  0.15625 0.125 0  0.1875 0.125 0  0.21875 0.125 0  0.25 0.125 0  0.28125 0.125 0  0.3125 0.125 0  0.34375 0.125 0  0.375 0.125 0  0.40625 0.125 0  0.4375 0.125 0  0.46875 0.125 0  0.5 0.125 0  0.53125 0.125 0  0.5625 0.125 0  0.59375 0.125 0  0.625 0.125 0  0.65625 0.125 0  0.6875 0.125 0  0.71875 0.125 0  0.75 0.125 0  0.78125 0.125 0  0.8125 0.125 0  0.84375 0.125 0  0.875 0.125 0  0.90625 0.125 0  0.9375 0.125 0  0.96875 0.125 0  1 0.125 0  1.03125 0.125 0  1.0625 0.125 0  1.09375 0.125 0  1.125 0.125 0  1.15625 0.125 0  1.1875 0.125 0  1.21875 0.125 0  1.25 0.125 0  1.28125 0.125 0  1.3125 0.125 0  1.34375 0.125 0  1.375 0.125 0  1.40625 0.125 0  1.4375 0.125 0  1.46875 0.125 0  1.5 0.125 0  0 0.15625 0  0.03125 0.15625 0  0.0625 0.15625 0  0.09375 0.15625 0  0.125 0.15625 0  0.15625 0.15625 0  0.1875 0.15625 0  0.21875 0.15625 0  0.25 0.15625 0  0.28125 0.15625 0  0.3125 0.15625 0  0.34375 0.15625 0  0.375 0.15625 0  0.40625 0.15625 0  0.4375 0.15625 0  0.46875 0.15625 0  0.5 0.15625 0  0.53125 0.15625 0  0.5625 0.15625 0  0.59375 0.15625 0  0.625 0.15625 0  0.65625 0.15625 0  0.6875 0.15625 0  0.71875 0.15625 0  0.75 0.15625 0  0.78125 0.15625 0  0.8125 0.15625 0  0.84375 0.15625 0  0.875 0.15625 0  0.90625 0.15625 0  0.9375 0.15625 0  0.96875 0.15625 0  1 0.15625 0  1.03125 0.15625 0  1.0625 0.15625 0  1.09375 0.15625 0  1.125 0.15625 0  1.15625 0.15625 0  1.1875 0.15625 0  1.21875 0.15625 0  1.25 0.15625 0  1.28125 0.15625 0  1.3125 0.15625 0  1.34375 0.15625 0  1.375 0.15625 0  1.40625 0.15625 0  1.4375 0.15625 0  1.46875 0.15625 0  1.5 0.15625 0  0 0.1875 0  0.03125 0.1875 0  0.0625 0.1875 0  0.09375 0.1875 0  0.125 0.1875 0  0.15625 0.1875 0  0.1875 0.1875 0  0.21875 0.1875 0  0.25 0.1875 0  0.28125 0.1875 0  0.3125 0.1875 0  0.34375 0.1875 0  0.375 0.1875 0  0.40625 0.1875 0  0.4375 0.1875 0  0.46875 0.1875 0  0.5 0.1875 0  0.53125 0.1875 0  0.5625 0.1875 0  0.59375 0.1875 0  0.625 0.1875 0  0.65625 0.1875 0  0.6875 0.1875 0  0.71875 0.1875 0  0.75 0.1875 0  0.78125 0.1875 0  0.8125 0.1875 0  0.84375 0.1875 0  0.875 0.1875 0  0.90625 0.1875 0  0.9375 0.1875 0  0.96875 0.1875 0  1 0.1875 0  1.03125 0.1875 0  1.0625 0.1875 0  1.09375 0.1875 0  1.125 0.1875 0  1.15625 0.1875 0  1.1875 0.1875 0  1.21875 0.1875 0  1.25 0.1875 0  1.28125 0.1875 0  1.3125 0.1875 0  1.34375 0.1875 0  1.375 0.1875 0  1.40625 0.1875 0  1.4375 0.1875 0  1.46875 0.1875 0  1.5 0.1875 0  0 0.21875 0  0.03125 0.21875 0  0.0625 0.21875 0  0.09375 0.21875 0  0.125 0.21875 0  0.15625 0.21875 0  0.1875 0.21875 0  0.21875 0.21875 0  0.25 0.21875 0  0.28125 0.21875 0  0.3125 0.21875 0  0.34375 0.21875 0  0.375 0.21875 0  0.40625 0.21875 0  0.4375 0.21875 0  0.46875 0.21875 0  0.5 0.21875 0  0.53125 0.21875 0  0.5625 0.21875 0  0.59375 0.21875 0  0.625 0.21875 0  0.65625 0.21875 0  0.6875 0.21875 0  0.71875 0.21875 0  0.75 0.21875 0  0.78125 0.21875 0  0.8125 0.21875 0  0.84375 0.21875 0  0.875 0.21875 0  0.90625 0.21875 0  0.9375 0.21875 0  0.96875 0.21875 0  1 0.21875 0  1.03125 0.21875 0  1.0625 0.21875 0  1.09375 0.21875 0  1.125 0.21875 0  1.15625 0.21875 0  1.1875 0.21875 0  1.21875 0.21875 0  1.25 0.21875 0  1.28125 0.21875 0  1.3125 0.21875 0  1.34375 0.21875 0  1.375 0.21875 0  1.40625 0.21875 0  1.4375 0.21875 0  1.46875 0.21875 0  1.5 0.21875 0  0 0.25 0  0.03125 0.25 0  0.0625 0.25 0  0.09375 0.25 0  0.125 0.25 0  0.15625 0.25 0  0.1875 0.25 0  0.21875 0.25 0  0.25 0.25 0  0.28125 0.25 0  0.3125 0.25 0  0.34375 0.25 0  0.375 0.25 0  0.40625 0.25 0  0.4375 0.25 0  0.46875 0.25 0  0.5 0.25 0  0.53125 0.25 0  0.5625 0.25 0  0.59375 0.25 0  0.625 0.25 0  0.65625 0.25 0  0.6875 0.25 0  0.71875 0.25 0  0.75 0.25 0  0.78125 0.25 0  0.8125 0.25 0  0.84375 0.25 0  0.875 0.25 0  0.90625 0.25 0  0.9375 0.25 0  0.96875 0.25 0  1 0.25 0  1.03125 0.25 0  1.0625 0.25 0  1.09375 0.25 0  1.125 0.25 0  1.15625 0.25 0  1.1875 0.25 0  1.21875 0.25 0  1.25 0.25 0  1.28125 0.25 0  1.3125 0.25 0  1.34375 0.25 0  1.375 0.25 0  1.40625 0.25 0  1.4375 0.25 0  1.46875 0.25 0  1.5 0.25 0  0 0.28125 0  0.03125 0.28125 0  0.0625 0.28125 0  0.09375 0.28125 0  0.125 0.28125 0  0.15625 0.28125 0  0.1875 0.28125 0  0.21875 0.28125 0  0.25 0.28125 0  0.28125 0.28125 0  0.3125 0.28125 0  0.34375 0.28125 0  0.375 0.28125 0  0.40625 0.28125 0  0.4375 0.28125 0  0.46875 0.28125 0  0.5 0.28125 0  0.53125 0.28125 0  0.5625 0.28125 0  0.59375 0.28125 0  0.625 0.28125 0  0.65625 0.28125 0  0.6875 0.28125 0  0.71875 0.28125 0  0.75 0.28125 0  0.78125 0.28125 0  0.8125 0.28125 0  0.84375 0.28125 0  0.875 0.28125 0  0.90625 0.28125 0  0.9375 0.28125 0  0.96875 0.28125 0  1 0.28125 0  1.03125 0.28125 0  1.0625 0.28125 0  1.09375 0.28125 0  1.125 0.28125 0  1.15625 0.28125 0  1.1875 0.28125 0  1.21875 0.28125 0  1.25 0.28125 0  1.28125 0.28125 0  1.3125 0.28125 0  1.34375 0.28125 0  1.375 0.28125 0  1.40625 0.28125 0  1.4375 0.28125 0  1.46875 0.28125 0  1.5 0.28125 0  0 0.3125 0  0.03125 0.3125 0  0.0625 0.3125 0  0.09375 0.3125 0  0.125 0.3125 0  0.15625 0.3125 0  0.1875 0.3125 0  0.21875 0.3125 0  0.25 0.3125 0  0.28125 0.3125 0  0.3125 0.3125 0  0.34375 0.3125 0  0.375 0.3125 0  0.40625 0.3125 0  0.4375 0.3125 0  0.46875 0.3125 0  0.5 0.3125 0  0.53125 0.3125 0  0.5625 0.3125 0  0.59375 0.3125 0  0.625 0.3125 0  0.65625 0.3125 0  0.6875 0.3125 0  0.71875 0.3125 0  0.75 0.3125 0  0.78125 0.3125 0  0.8125 0.3125 0  0.84375 0.3125 0  0.875 0.3125 0  0.90625 0.3125 0  0.9375 0.3125 0  0.96875 0.3125 0  1 0.3125 0  1.03125 0.3125 0  1.0625 0.3125 0  1.09375 0.3125 0  1.125 0.3125 0  1.15625 0.3125 0  1.1875 0.3125 0  1.21875 0.3125 0  1.25 0.3125 0  1.28125 0.3125 0  1.3125 0.3125 0  1.34375 0.3125 0  1.375 0.3125 0  1.40625 0.3125 0  1.4375 0.3125 0  1.46875 0.3125 0  1.5 0.3125 0  0 0.34375 0  0.03125 0.34375 0  0.0625 0.34375 0  0.09375 0.34375 0  0.125 0.34375 0  0.15625 0.34375 0  0.1875 0.34375 0  0.21875 0.34375 0  0.25 0.34375 0  0.28125 0.34375 0  0.3125 0.34375 0  0.34375 0.34375 0  0.375 0.34375 0  0.40625 0.34375 0  0.4375 0.34375 0  0.46875 0.34375 0  0.5 0.34375 0  0.53125 0.34375 0  0.5625 0.34375 0  0.59375 0.34375 0  0.625 0.34375 0  0.65625 0.34375 0  0.6875 0.34375 0  0.71875 0.34375 0  0.75 0.34375 0  0.78125 0.34375 0  0.8125 0.34375 0  0.84375 0.34375 0  0.875 0.34375 0  0.90625 0.34375 0  0.9375 0.34375 0  0.96875 0.34375 0  1 0.34375 0  1.03125 0.34375 0  1.0625 0.34375 0  1.09375 0.34375 0  1.125 0.34375 0  1.15625 0.34375 0  1.1875 0.34375 0  1.21875 0.34375 0  1.25 0.34375 0  1.28125 0.34375 0  1.3125 0.34375 0  1.34375 0.34375 0  1.375 0.34375 0  1
[...]
<PointData  Vectors="f_17"> 
<DataArray  type="Float64"  Name="f_17"  NumberOfComponents="3" format="ascii">0.0000000000000000e+00 0.0000000000000000e+00 0.0000000000000000e+00  0.0000000000000000e+00 0.0000000000000000e+00 0.0000000000000000e+00  0.0000000000000000e+00 0.0000000000000000e+00 0.0000000000000000e+00  0.0000000000000000e+00 0.0000000000000000e+00 0.0000000000000000e+00  0.0000000000000000e+00 0.0000000000000000e+00 0.0000000000000000e+00  0.0000000000000000e+00 0.0000000000000000e+00 0.0000000000000000e+00  0.0000000000000000e+00 0.0000000000000000e+00 0.0000000000000000e+00  0.0000000000000000e+00 0.0000000000000000e+00 0.0000000000000000e+00  0.0000000000000000e+00 0.0000000000000000e+00 0.0000000000000000e+00  0.0000000000000000e+00 0.0000000000000000e+00 0.0000000000000000e+00  0.0000000000000000e+00 0.0000000000000000e+00 0.0000000000000000e+00  0.0000000000000000e+00 0.0000000000000000e+00 0.0000000000000000e+00  0.0000000000000000e+00 0.0000000000000000e+00 0.0000000000000000e+00  0.0000000000000000e+00 0.0000000000000000e+00 0.0000000000000000e+00  0.0000000000000000e+00 0.0000000000000000e+00 0.0000000000000000e+00  0.0000000000000000e+00 0.0000000000000000e+00 0.0000000000000000e+00  0.0000000000000000e+00 0.0000000000000000e+00 0.0000000000000000e+00  0.0000000000000000e+00 0.0000000000000000e+00 0.0000000000000000e+00  0.0000000000000000e+00 0.0000000000000000e+00 0.0000000000000000e+00  0.0000000000000000e+00 0.0000000000000000e+00 0.0000000000000000e+00  0.0000000000000000e+00 0.0000000000000000e+00 0.0000000000000000e+00  0.0000000000000000e+00 0.0000000000000000e+00 0.0000000000000000e+00  0.0000000000000000e+00 0.0000000000000000e+00 0.0000000000000000e+00  0.0000000000000000e+00 0.0000000000000000e+00 0.0000000000000000e+00  0.0000000000000000e+00 0.0000000000000000e+00 0.0000000000000000e+00  0.0000000000000000e+00 0.0000000000000000e+00 0.0000000000000000e+00  0.0000000000000000e+00 0.0000000000000000e+00 0.0000000000000000e+00  0.0000000000000000e+00 0.0000000000000000e+00 0.0000000000000000e+00  0.0000000000000000e+00 0.0000000000000000e+00 0.0000000000000000e+00  0.0000000000000000e+00 0.0000000000000000e+00 0.0000000000000000e+00  0.0000000000000000e+00 0.0000000000000000e+00 0.0000000000000000e+00  0.0000000000000000e+00 0.0000000000000000e+00 0.0000000000000000e+00  0.0000000000000000e+00 0.0000000000000000e+00 0.0000000000000000e+00  0.0000000000000000e+00 0.0000000000000000e+00 0.0000000000000000e+00  0.0000000000000000e+00 0.0000000000000000e+00 0.0000000000000000e+00  0.0000000000000000e+00 0.0000000000000000e+00 0.0000000000000000e+00  0.0000000000000000e+00 0.0000000000000000e+00 0.0000000000000000e+00  0.0000000000000000e+00 0.0000000000000000e+00 0.0000000000000000e+00  0.0000000000000000e+00 0.0000000000000000e+00 0.0000000000000000e+00  0.0000000000000000e+00 0.0000000000000000e+00 0.0000000000000000e+00  0.0000000000000000e+00 0.0000000000000000e+00 0.0000000000000000e+00  0.0000000000000000e+00 0.0000000000000000e+00 0.0000000000000000e+00  0.0000000000000000e+00 0.0000000000000000e+00 0.0000000000000000e+00  0.0000000000000000e+00 0.0000000000000000e+00 0.0000000000000000e+00  0.0000000000000000e+00 0.0000000000000000e+00 0.0000000000000000e+00  0.0000000000000000e+00 0.0000000000000000e+00 0.0000000000000000e+00  0.0000000000000000e+00 0.0000000000000000e+00 0.0000000000000000e+00  0.0000000000000000e+00 0.0000000000000000e+00 0.0000000000000000e+00  0.0000000000000000e+00 0.0000000000000000e+00 0.0000000000000000e+00  0.0000000000000000e+00 0.0000000000000000e+00 0.0000000000000000e+00  2.1388481411832275e-07 2.2638338487694541e-08 0.0000000000000000e+00  -1.6299591654645478e-07 1.1719777563061123e-07 0.0000000000000000e+00  -1.7640250398720106e-07 -4.2537464176981180e-09 0.0000000000000000e+00  -3.9038820571547316e-07 -4.5906770391263254e-08 0.0000000000000000e+00  -3.8308142823960816e-07 -7.5009674855738702e-08 0.0000000000000000e+00  -3.7779368300706385e-07 -8.2350454212290463e-08 0.0000000000000000e+00  -3.7428939012599399e-07 -7.7334047591121604e-08 0.0000000000000000e+00  -3.5833555811847397e-07 -6.9436200827600421e-08 0.0000000000000000e+00  -3.4201672191477102e-07 -6.0081403063760908e-08 0.0000000000000000e+00  -3.2576716564426694e-07 -5.0447594057223044e-08 0.0000000000000000e+00  -3.1116246869863102e-07 -4.1005699738147977e-08 0.0000000000000000e+00  -2.9970939268477849e-07 -3.1893590152700257e-08 0.0000000000000000e+00  -2.9207213040672425e-07 -2.3189137435524999e-08 0.0000000000000000e+00  -2.8875862724664275e-07 -1.4900015608204031e-08 0.0000000000000000e+00  -2.9008078109318537e-07 -6.9957103573651745e-09 0.0000000000000000e+00  -2.9622382577673953e-07 5.6533112750602131e-10 0.0000000000000000e+00  -3.0729614903642248e-07 7.8068584802221575e-09 0.0000000000000000e+00  -3.2332310941765280e-07 1.4701605190106779e-08 0.0000000000000000e+00  -3.4421441998667493e-07 2.1140575770976477e-08 0.0000000000000000e+00  -3.6970250959236209e-07 2.6914142874210884e-08 0.0000000000000000e+00  -3.9926621180125205e-07 3.1714880879105649e-08 0.0000000000000000e+00  -4.3206370951427629e-07 3.5168410011629596e-08 0.0000000000000000e+00  -4.6689740685971249e-07 3.6890155824994144e-08 0.0000000000000000e+00  -5.0223651534764597e-07 3.6555970008154568e-08 0.0000000000000000e+00  -5.3629417773568126e-07 3.3967822462185493e-08 0.0000000000000000e+00  -5.6716950450340033e-07 2.9094948501518219e-08 0.0000000000000000e+00  -5.9298454284071272e-07 2.2081067052362114e-08 0.0000000000000000e+00  -6.1207289112714288e-07 1.3212537925452477e-08 0.0000000000000000e+00  -6.2300607759934318e-07 2.8722595799414223e-09 0.0000000000000000e+00  -6.2482563820678496e-07 -8.5383923392223745e-09 0.0000000000000000e+00  -6.1668711570641395e-07 -2.0612654703316149e-08 0.0000000000000000e+00  -5.9857367299370800e-07 -3.3067587123131703e-08 0.0000000000000000e+00  -5.6968706429707892e-07 -4.5543133941044412e-08 0.0000000000000000e+00  -5.3160532357883813e-07 -5.8084858870058798e-08 0.0000000000000000e+00  -4.8157199911902056e-07 -7.0023528412083726e-08 0.0000000000000000e+00  -4.2624917706459540e-07 -8.2393241686763199e-08 0.0000000000000000e+00  -3.5327057457076696e-07 -9.2464010909219760e-08 0.0000000000000000e+00  -2.8983848145259512e-07 -1.0558493659566635e-07 0.0000000000000000e+00  -1.8249291276071792e-07 -1.0919326495753883e-07 0.0000000000000000e+00  -1.4304671257089889e-07 -1.2859438370512370e-07 0.0000000000000000e+00  5.2208096701157811e-08 -1.0707747022995144e-07 0.0000000000000000e+00  -5.1106655967258284e-08 -1.5880379234363958e-07 0.0000000000000000e+00  4.5126798771164055e-07 -3.7389475637361152e-08 0.0000000000000000e+00  -2.6735562154364573e-07 -2.3811585649650810e-07 0.0000000000000000e+00  1.3158463935826024e-06 2.4813198836462381e-07 0.0000000000000000e+00  -2.4134473718936626e-06 -7.4401048224364670e-07 0.0000000000000000e+00  2.7111740995900450e-06 1.3762178233506890e-06 0.0000000000000000e+00  0.0000000000000000e+00 0.0000000000000000e+00 0.0000000000000000e+00  0.0000000000000000e+00 0.0000000000000000e+00 0.0000000000000000e+00  -1.1421406932576924e-06 7.3720018731002025e-07 0.0000000000000000e+00  8.1858728059925432e-07 1.9913042109998635e-08 0.0000000000000000e+00  -1.9823853844451008e-07 1.4452808223677354e-07 0.0000000000000000e+00  -3.8474661710930321e-07 9.9292606296402366e-09 0.0000000000000000e+00  -4.0743936261070823e-07 -5.0761416155563855e-08 0.0000000000000000e+00  -4.7594947741963778e-07 -8.0334474579042994e-08 0.0000000000000000e+00  -4.8279070954331947e-07 -9.1340555172779856e-08 0.0000000000000000e+00  -4.7740969595856346e-07 -9.1898332708355277e-08 0.0000000000000000e+00  -4.6582455355325701e-07 -8.6087663682048894e-08 0.0000000000000000e+00  -4.4964823911103794e-07 -7.6610657089190766e-08 0.0000000000000000e+00  -4.3387938201157624e-07 -6.4917418310841907e-08 0.0000000000000000e+00  -4.2010956847830112e-07 -5.1957004354531418e-08 0.0000000000000000e+00  -4.0962053765759654e-07 -3.8355035846910005e-08 0.0000000000000000e+00  -4.0328232071919365e-07 -2.4496296666436885e-08 0.0000000000000000e+00  -4.0157328583287518e-07 -1.0606589087552798e-08 0.0000000000000000e+00  -4.0479426270839405e-07 3.1801331865227500e-09 0.0000000000000000e+00  -4.1310204075191009e-07 1.6752259310138344e-08 0.0000000000000000e+00  -4.2653358337839092e-07 2.9943930492514418e-08 0.0000000000000000e+00  -4.4498627429537484e-07 4.2461855432524904e-08 0.0000000000000000e+00  -4.6815540805681378e-07 5.3833434457536158e-08 0.0000000000000000e+00  -4.9544877596574129e-07 6.3398211811589973e-08 0.0000000000000000e+00  -5.2590624834029805e-07 7.0359316122630541e-08 0.0000000000000000e+00  -5.5815716937662268e-07 7.3894148785936772e-08 0.0000000000000000e+00  -5.9045201084363993e-07 7.3300751742511728e-08 0.0000000000000000e+00  -6.2076729613668370e-07 6.8139019061974888e-08 0.0000000000000000e+00  -6.4699230946354848e-07 5.8322939220294035e-08 0.0000000000000000e+00  -6.6710855957564514e-07 4.4139026614361464e-08 0.0000000000000000e+00  -6.7941606164664542e-07 2.6184311504833064e-08 0.0000000000000000e+00  -6.8256116225209688e-07 5.2623179364510866e-09 0.0000000000000000e+00  -6.7577534397812228e-07 -1.7762820323219111e-08 0.0000000000000000e+00  -6.5846122364221929e-07 -4.2035854297552649e-08 0.0000000000000000e+00  -6.3093799527736808e-07 -6.6877004339468477e-08 0.0000000000000000e+00  -5.9270161736648405e-07 -9.1592930393798960e-08 0.0000000000000000e+00  -5.4576828552697051e-07 -1.1594164370279068e-07 0.0000000000000000e+00  -4.8762860703985460e-07 -1.3901594836839414e-07 0.0000000000000000e+00  -4.2559935309154730e-07 -1.6152593920553729e-07 0.0000000000000000e+00  -3.4745742782417968e-07 -1.8056409620470931e-07 0.0000000000000000e+00  -2.8153891834471357e-07 -2.0065821543558551e-07 0.0000000000000000e+00  -1.7450097277190416e-07 -2.0958103285593594e-07 0.0000000000000000e+00  -1.3970001997623306e-07 -2.2953058834102129e-07 0.0000000000000000e+00  4.5090024632559927e-08 -2.0790595764269163e-07 0.0000000000000000e+00  -7.4043492211351603e-08 -2.4610751617956618e-07 0.0000000000000000e+00  3.9466778137444851e-07 -1.2294096004408322e-07 0.0000000000000000e+00  -3.5163411008647641e-07 -2.8147375844233497e-07 0.0000000000000000e+00  1.0931008969316791e-06 1.7384754257015245e-07 0.0000000000000000e+00  -2.4957627210936480e-06 -5.8576450013154447e-07 0.0000000000000000e+00  2.5455462428137986e-06 1.4408819802747628e-06 0.0000000000000000e+00  0.0000000000000000e+00 0.0000000000000000e+00 0.0000000000000000e+00  0.0000000000000000e+00 0.0000000000000000e+00 0.0000000000000000e+00  -2.2071385218638134e-06 1.2250814625696269e-06 0.0000000000000000e+00  1.8130451742465192e-06 -5.0583217594223725e-08 0.0000000000000000e+00  -4.3428388822659981e-07 3.3179093848725475e-07 0.0000000000000000e+00  -5.5437269766575225e-08 5.4188664675650576e-08 0.0000000000000000e+00  -2.0996603028779426e-07 8.9822974413618359e-09 0.0000000000000000e+00  -2.8196847004858728e-07 -5.4526734311499897e-08 0.0000000000000000e+00  -3.1013774806116100e-07 -8.1782966692742462e-08 0.0000000000000000e+00  -3.4601637278093229e-07 -9.2886568405276160e-08 0.0000000000000000e+00  -3.6415142022380268e-07 -9.2712533015601875e-08 0.0000000000000000e+00  -3.7528944453532775e-07 -8.5271584359637468e-08 0.0000000000000000e+00  -3.8216138488114441e-07 -7.3282034713957174e-08 0.0000000000000000e+00  -3.8638643267294521e-07 -5.8482581841667388e-08 0.0000000000000000e+00  -3.9013268345591247e-07 -4.2045104379277746e-08 0.0000000000000000e+00  -3.9459500024329298e-07 -2.4725478267854544e-08 0.0000000000000000e+00  -4.0068297922979561e-07 -6.9952046035067112e-09 0.0000000000000000e+00  -4.0904853156722085e-07 1.0856234325741770e-08 0.0000000000000000e+00  -4.2013620586396831e-07 2.8615626730059857e-08 0.0000000000000000e+00  -4.3424616847298858e-07 4.6026364666347818e-08 0.0000000000000000e+00  -4.5152171230698869e-07 6.2667768561544060e-08 0.0000000000000000e+00  -4.7189376439837269e-07 7.7859474832936818e-08 0.0000000000000000e+00  -4.9498693573588683e-07 9.0630786079843672e-08 0.0000000000000000e+00  -5.2002238650821002e-07 9.9788738159941668e-08 0.0000000000000000e+00  -5.4576459410680569e-07 1.0408980688355804e-07 0.0000000000000000e+00  -5.7056343967576048e-07 1.0247767687141691e-07 0.0000000000000000e+00  -5.9249624469664667e-07 9.4315133979261633e-08 0.0000000000000000e+00  -6.0961094772618079e-07 7.9532096312018064e-08 0.0000000000000000e+00  -6.2015693260185921e-07 5.8645170687863460e-08 0.0000000000000000e+00  -6.2284208212504321e-07 3.2644778737721017e-08 0.0000000000000000e+00  -6.1684711576463145e-07 2.8113060441330580e-09 0.0000000000000000e+00  -6.0203763457681700e-07 -2.9512992217318073e-08 0.0000000000000000e+00  -5.7847669021030376e-07 -6.3051278953001695e-08 0.0000000000000000e+00  -5.4716550697098738e-07 -9.6790407834231079e-08 0.0000000000000000e+00  -5.0819418498588985e-07 -1.2978243783024937e-07 0.0000000000000000e+00  -4.6422577253539215e-07 -1.6159722259006742e-07 0.0000000000000000e+00  -4.1318282244989416e-07 -1.9115173499989969e-07 0.0000000000000000e+00  -3.6310918536840124e-07 -2.1897123006057333e-07 0.0000000000000000e+00  -3.0195890048107090e-07 -2.4192552135025660e-07 0.0000000000000000e+00  -2.5912027278688910e-07 -2.6412622679406723e-07 0.0000000000000000e+00  -1.8097201686293241e-07 -2.7325799583473443e-07 0.0000000000000000e+00  -1.8206043577975650e-07 -2.9012968714209872e-07 0.0000000000000000e+00  -4.0328838412887174e-08 -2.6451751011145642e-07 0.0000000000000000e+00  -2.0605176904159449e-07 -2.9152652178243609e-07 0.0000000000000000e+00  2.0061612061492195e-07 -1.6927549837720777e-07 0.0000000000000000e+00  -5.8250671478413825e-07 -3.0383580376343775e-07 0.0000000000000000e+00  7.7347038440593918e-07 1.0345183107941990e-07 0.0000000000000000e+00  -2.7385868465963691e-06 -5.4115635874785236e-07 0.0000000000000000e+00  2.1489095887573041e-06 1.2268872019535112e-06 0.0000000000000000e+00  0.0000000000000000e+00 0.0000000000000000e+00 0.0000000000000000e+00  0.0000000000000000e+00 0.0000000000000000e+00 0.0000000000000000e+00  -2.4575826192479343e-06 1.2724358574626151e-06 0.0000000000000000e+00  2.4406312113929075e-06 -6.7031058662151541e-08 0.0000000000000000e+00  -7.1894727377130489e-07 4.3031544268181069e-07 0.0000000000000000e+00  2.4551144810987319e-07 8.5976778294718237e-08 0.0000000000000000e+00  -1.9000885133534684e-07 9.5972132642803043e-08 0.0000000000000000e+00  -1.4692573348033731e-07 -2.1740299614587012e-09 0.0000000000000000e+00  -2.0689041179190572e-07 -3.5785200440181050e-08 0.0000000000000000e+00  -2.5270679930458900e-07 -6.1892677221198634e-08 0.0000000000000000e+00  -2.8138498816348899e-07 -7.1240413267381048e-08 0.0000000000000000e+00  -3.0721443944639220e-07 -7.0797789074157945e-08 0.0000000000000000e+00  -3.2585544910381971e-07 -6.3197670946190927e-08 0.0000000000000000e+00  -3.4067138980263206e-07 -5.0744562016637952e-08 0.0000000000000000e+00  -3.5323852782049732e-07 -3.5132952980418030e-08 0.0000000000000000e+00  -3.6462660961081318e-07 -1.7519238375033574e-08 0.0000000000000000e+00  -3.7585445694825348e-07 1.3020538318403765e-09 0.0000000000000000e+00  -3.8760570240704871e-07 2.0818160493368905e-08 0.0000000000000000e+00  -4.0041820134217730e-07 4.0664454685750051e-08 0.0000000000000000e+00  -4.1471574683858260e-07 6.0469065987197254e-08 0.0000000000000000e+00  -4.3080278823932611e-07 7.9676582878533479e-08 0.0000000000000000e+00  -4.4880421361762485e-07 9.7389732291412045e-08 0.0000000000000000e+00  -4.6853864517321188e-07 1.1229697574989617e-07 0.0000000000000000e+00  -4.8937630824971861e-07 1.2275080510785836e-07 0.0000000000000000e+00  -5.1014982491037947e-07 1.2701753393419230e-07 0.0000000000000000e+00  -5.2919968841204498e-07 1.2364210732317452e-07 0.0000000000000000e+00  -5.4457082767705482e-07 1.1180539420571013e-07 0.0000000000000000e+00  -5.5434851473161036e-07 9.1540439755520913e-08 0.0000000000000000e+00  -5.5697259287908967e-07 6.3734490517589393e-08 0.0000000000000000e+00  -5.5154173211040398e-07 2.9925523176284493e-08 0.0000000000000000e+00  -5.3779434161954115e-07 -8.0037222084880204e-09 0.0000000000000000e+00  -5.1627415927790474e-07 -4.8161367014721907e-08 0.0000000000000000e+00  -4.8770892482292817e-07 -8.8837846382265150e-08 0.0000000000000000e+00  -4.5376663146259209e-07 -1.2871737347757618e-07 0.0000000000000000e+00  -4.1498479691901037e-07 -1.6665800754682203e-07 0.0000000000000000e+00  -3.7457582222000156e-07 -2.0209075184711678e-07 0.0000000000000000e+00  -3.3046438074313262e-07 -2.3382873277958149e-07 0.0000000000000000e+00  -2.9139484531806724e-07 -2.6221589431051398e-07 0.0000000000000000e+00  -2.4436688323698259e-07 -2.8404298938289514e-07 0.0000000000000000e+00  -2.2053026514315848e-07 -3.0294753508625670e-07 0.0000000000000000e+00  -1.6251176649326346e-07 -3.0706267110113298e-07 0.0000000000000000e+00  -1.9042037579485505e-07 -3.1568615226606772e-07 0.0000000000000000e+00  -6.9894754851022472e-08 -2.8257040545685459e-07 0.0000000000000000e+00  -2.6861347957057689e-07 -2.9628328854049243e-07 0.0000000000000000e+00  1.2917644182639047e-07 -1.7557166684511768e-07 0.0000000000000000e+00  -6.8625747383485208e-07 -2.9062942293119840e-07 0.0000000000000000e+00  6.9666484600110431e-07 7.1165118450909844e-08 0.0000000000000000e+00  -2.8081012508587016e-06 -4.9514475720365094e-07 0.0000000000000000e+00  2.1283185646459435e-06 1.0633187695389692e-06 0.0000000000000000e+00  0.0000000000000000e+00 0.0000000000000000e+00 0.0000000000000000e+00  0.0000000000000000e+00 0.0000000000000000e+00 0.0000000000000000e+00  -2.4034025528909775e-06 1.1669161061378978e-06 0.0000000000000000e+00  2.6942779346364982e-06 -4.3684511963101895e-08 0.0000000000000000e+00  -8.4560524062600251e-07 4.4214389979458988e-07 0.0000000000000000e+00  4.8021942047488183e-07 1.1232309941147453e-07 0.0000000000000000e+00  -2.0906356347068480e-07 1.6357269786410102e-07 0.0000000000000000e+00  -7.9271852792404777e-10 4.5690542184174055e-08 0.0000000000000000e+00  -1.2407811204632502e-07 1.6908205846413376e-08 0.0000000000000000e+00  -1.4901018998373642e-07 -2.2358006902289991e-08 0.0000000000000000e+00  -1.8849048749242518e-07 -3.8174954831194756e-08 0.0000000000000000e+00  -2.2265699542481081e-07 -4.4937555019137547e-08 0.0000000000000000e+00  -2.4940140801106391e-07 -4.2295008920295519e-08 0.0000000000000000e+00  -2.7293841261368005e-07 -3.3403206644712528e-08 0.0000000000000000e+00  -2.9299935504140687e-07 -2.0058832652895683e-08 0.0000000000000000e+00  -3.1084121921628523e-07 -3.7155033647003317e-09 0.0000000000000000e+00  -3.2727253731092926e-07 1.4582448333197364e-08 0.0000000000000000e+00  -3.4289678199371597e-07 3.4150362356352155e-08 0.0000000000000000e+00  -3.5827045430998965e-07 5.4518902534459865e-08 0.0000000000000000e+00  -3.7387868303724859e-07 7.5264323697589322e-08 0.0000000000000000e+00  -3.9016819913277346e-07 9.5765546740336898e-08 0.0000000000000000e+00  -4.0746596174818679e-07 1.1495643007222446e-07 0.0000000000000000e+00  -4.2580057604560376e-07 1.3117642010464430e-07 0.0000000000000000e+00  -4.4467934351894123e-07 1.4224511986527046e-07 0.0000000000000000e+00  -4.6292835186142269e-07 1.4582038235121639e-07 0.0000000000000000e+00  -4.7873462247251922e-07 1.3995749683764130e-07 0.0000000000000000e+00  -4.8993259012069290e-07 1.2365844514457996e-07 0.0000000000000000e+00  -4.9449525958421805e-07 9.7179482526985599e-08 0.0000000000000000e+00  -4.9098637986582996e-07 6.1981138470302711e-08 0.0000000000000000e+00  -4.7892352904413380e-07 2.0363115420243147e-08 0.0000000000000000e+00  -4.5869587492858916e-07 -2.5032669910699315e-08 0.0000000000000000e+00  -4.3162255604933538e-07 -7.1704386758269706e-08 0.0000000000000000e+00  -3.9915802317808694e-07 -1.1754575318957183e-07 0.0000000000000000e+00  -3.6361549901115484e-07 -1.6104708698486577e-07 0.0000000000000000e+00  -3.2591263386512722e-07 -2.0101702038042486e-07 0.0000000000000000e+00  -2.8962032841343381e-07 -2.369082372249