<?xml version="1.0"?>
<VTKFile type="UnstructuredGrid"  version="0.1"  >
<UnstructuredGrid>
<Piece  NumberOfPoints="1617" NumberOfCells="3072">
<Points>
<DataArray  type="Float64"  NumberOfComponents="3"  format="ascii">0 0 0  0.03125 0 0  0.0625 0 0  0.09375 0 0  0.125 0 0  0.15625 0 0  0.1875 0 0  0.21875 0 0  0.25 0 0  0.28125 0 0  0.3125 0 0  0.34375 0 0  0.375 0 0  0.40625 0 0  0.4375 0 0  0.46875 0 0  0.5 0 0  0.53125 0 0  0.5625 0 0  0.59375 0 0  0.625 0 0  0.65625 0 0  0.6875 0 0  0.71875 0 0  0.75 0 0  0.78125 0 0  0.8125 0 0  0.84375 0 0  0.875 0 0  0.90625 0 0  0.9375 0 0  0.96875 0 0  1 0 0  1.03125 0 0  1.0625 0 0  1.09375 0 0  1.125 0 0  1.15625 0 0  1.1875 0 0  1.21875 0 0  1.25 0 0  1.28125 0 0  1.3125 0 0  1.34375 0 0  1.375 0 0  1.40625 0 0  1.4375 0 0  1.46875 0 0  1.5 0 0  0 0.03125 0  0.03125 0.03125 0  0.0625 0.03125 0  0.09375 0.03125 0  0.125 0.03125 0  0.15625 0.03125 0  0.1875 0.03125 0  0.21875 0.03125 0  0.25 0.03125 0  0.28125 0.03125 0  0.3125 0.03125 0  0.34375 0.03125 0  0.375 0.03125 0  0.40625 0.03125 0  0.4375 0.03125 0  0.46875 0.03125 0  0.5 0.03125 0  0.53125 0.03125 0  0.5625 0.03125 0  0.59375 0.03125 0  0.625 0.03125 0  0.65625 0.03125 0  0.6875 0.03125 0  0.71875 0.03125 0  0.75 0.03125 0  0.78125 0.03125 0  0.8125 0.03125 0  0.84375 0.03125 0  0.875 0.03125 0  0.90625 0.03125 0  0.9375 0.03125 0  0.96875 0.03125 0  1 0.03125 0  1.03125 0.03125 0  1.0625 0.03125 0  1.09375 0.03125 0  1.125 0.03125 0  1.15625 0.03125 0  1.1875 0.03125 0  1.21875 0.03125 0  1.25 0.03125 0  1.28125 0.03125 0  1.3125 0.03125 0  1.34375 0.03125 0  1.375 0.03125 0  1.40625 0.03125 0  1.4375 0.03125 0  1.46875 0.03125 0  1.5 0.03125 0  0 0.0625 0  0.03125 0.0625 0  0.0625 0.0625 0  0.09375 0.0625 0  0.125 0.0625 0  0.15625 0.0625 0  0.1875 0.0625 0  0.21875 0.0625 0  0.25 0.0625 0  0.28125 0.0625 0  0.3125 0.0625 0  0.34375 0.0625 0  0.375 0.0625 0  0.40625 0.0625 0  0.4375 0.0625 0  0.46875 0.0625 0  0.5 0.0625 0  0.53125 0.0625 0  0.5625 0.0625 0  0.59375 0.0625 0  0.625 0.0625 0  0.65625 0.0625 0  0.6875 0.0625 0  0.71875 0.0625 0  0.75 0.0625 0  0.78125 0.0625 0  0.8125 0.0625 0  0.84375 0.0625 0  0.875 0.0625 0  0.90625 0.0625 0  0.9375 0.0625 0  0.96875 0.0625 0  1 0.0625 0  1.03125 0.0625 0  1.0625 0.0625 0  1.09375 0.0625 0  1.125 0.0625 0  1.15625 0.0625 0  1.1875 0.0625 0  1.21875 0.0625 0  1.25 0.0625 0  1.28125 0.0625 0  1.3125 0.0625 0  1.34375 0.0625 0  1.375 0.0625 0  1.40625 0.0625 0  1.4375 0.0625 0  1.46875 0.0625 0  1.5 0.0625 0  0 0.09375 0  0.03125 0.09375 0  0.0625 0.09375 0  0.09375 0.09375 0  0.125 0.09375 0  0.15625 0.09375 0  0.1875 0.09375 0  0.21875 0.09375 0  0.25 0.09375 0  0.28125 0.09375 0  0.3125 0.09375 0  0.34375 0.09375 0  0.375 0.09375 0  0.40625 0.09375 0  0.4375 0.09375 0  0.46875 0.09375 0  0.5 0.09375 0  0.53125 0.09375 0  0.5625 0.09375 0  0.59375 0.09375 0  0.625 0.09375 0  0.65625 0.09375 0  0.6875 0.09375 0  0.71875 0.09375 0  0.75 0.09375 0  0.78125 0.09375 0  0.8125 0.09375 0  0.84375 0.09375 0  0.875 0.09375 0  0.90625 0.09375 0  0.9375 0.09375 0  0.96875 0.09375 0  1 0.09375 0  1.03125 0.09375 0  1.0625 0.09375 0  1.09375 0.09375 0  1.125 0.09375 0  1.15625 0.09375 0  1.1875 0.09375 0  1.21875 0.09375 0  1.25 0.09375 0  1.28125 0.09375 0  1.3125 0.09375 0  1.34375 0.09375 0  1.375 0.09375 0  1.40625 0.09375 0  1.4375 0.09375 0  1.46875 0.09375 0  1.5 0.09375 0  0 0.125 0  0.03125 0.125 0  0.0625 0.125 0  0.09375 0.125 0  0.125 0.125 0  0.15625 0.125 0  0.1875 0.125 0  0.21875 0.125 0  0.25 0.125 0  0.28125 0.125 0  0.3125 0.125 0  0.34375 0.125 0  0.375 0.125 0  0.40625 0.125 0  0.4375 0.125 0  0.46875 0.125 0  0.5 0.125 0  0.53125 0.125 0  0.5625 0.125 0  0.59375 0.125 0  0.625 0.125 0  0.65625 0.125 0  0.6875 0.125 0  0.71875 0.125 0  0.75 0.125 0  0.78125 0.125 0  0.8125 0.125 0  0.84375 0.125 0  0.875 0.125 0  0.90625 0.125 0  0.9375 0.125 0  0.96875 0.125 0  1 0.125 0  1.03125 0.125 0  1.0625 0.125 0  1.09375 0.125 0  1.125 0.125 0  1.15625 0.125 0  1.1875 0.125 0  1.21875 0.125 0  1.25 0.125 0  1.28125 0.125 0  1.3125 0.125 0  1.34375 0.125 0  1.375 0.125 0  1.40625 0.125 0  1.4375 0.125 0  1.46875 0.125 0  1.5 0.125 0  0 0.15625 0  0.03125 0.15625 0  0.0625 0.15625 0  0.09375 0.15625 0  0.125 0.15625 0  0.15625 0.15625 0  0.1875 0.15625 0  0.21875 0.15625 0  0.25 0.15625 0  0.28125 0.15625 0  0.3125 0.15625 0  0.34375 0.15625 0  0.375 0.15625 0  0.40625 0.15625 0  0.4375 0.15625 0  0.46875 0.15625 0  0.5 0.15625 0  0.53125 0.15625 0  0.5625 0.15625 0  0.59375 0.15625 0  0.625 0.15625 0  0.65625 0.15625 0  0.6875 0.15625 0  0.71875 0.15625 0  0.75 0.15625 0  0.78125 0.15625 0  0.8125 0.15625 0  0.84375 0.15625 0  0.875 0.15625 0  0.90625 0.15625 0  0.9375 0.15625 0  0.96875 0.15625 0  1 0.15625 0  1.03125 0.15625 0  1.0625 0.15625 0  1.09375 0.15625 0  1.125 0.15625 0  1.15625 0.15625 0  1.1875 0.15625 0  1.21875 0.15625 0  1.25 0.15625 0  1.28125 0.15625 0  1.3125 0.15625 0  1.34375 0.15625 0  1.375 0.15625 0  1.40625 0.15625 0  1.4375 0.15625 0  1.46875 0.15625 0  1.5 0.15625 0  0 0.1875 0  0.03125 0.1875 0  0.0625 0.1875 0  0.09375 0.1875 0  0.125 0.1875 0  0.15625 0.1875 0  0.1875 0.1875 0  0.21875 0.1875 0  0.25 0.1875 0  0.28125 0.1875 0  0.3125 0.1875 0  0.34375 0.1875 0  0.375 0.1875 0  0.40625 0.1875 0  0.4375 0.1875 0  0.46875 0.1875 0  0.5 0.1875 0  0.53125 0.1875 0  0.5625 0.1875 0  0.59375 0.1875 0  0.625 0.1875 0  0.65625 0.1875 0  0.6875 0.1875 0  0.71875 0.1875 0  0.75 0.1875 0  0.78125 0.1875 0  0.8125 0.1875 0  0.84375 0.1875 0  0.875 0.1875 0  0.90625 0.1875 0  0.9375 0.1875 0  0.96875 0.1875 0  1 0.1875 0  1.03125 0.1875 0  1.0625 0.1875 0  1.09375 0.1875 0  1.125 0.1875 0  1.15625 0.1875 0  1.1875 0.1875 0  1.21875 0.1875 0  1.25 0.1875 0  1.28125 0.1875 0  1.3125 0.1875 0  1.34375 0.1875 0  1.375 0.1875 0  1.40625 0.1875 0  1.4375 0.1875 0  1.46875 0.1875 0  1.5 0.1875 0  0 0.21875 0  0.03125 0.21875 0  0.0625 0.21875 0  0.09375 0.21875 0  0.125 0.21875 0  0.15625 0.21875 0  0.1875 0.21875 0  0.21875 0.21875 0  0.25 0.21875 0  0.28125 0.21875 0  0.3125 0.21875 0  0.34375 0.21875 0  0.375 0.21875 0  0.40625 0.21875 0  0.4375 0.21875 0  0.46875 0.21875 0  0.5 0.21875 0  0.53125 0.21875 0  0.5625 0.21875 0  0.59375 0.21875 0  0.625 0.21875 0  0.65625 0.21875 0  0.6875 0.21875 0  0.71875 0.21875 0  0.75 0.21875 0  0.78125 0.21875 0  0.8125 0.21875 0  0.84375 0.21875 0  0.875 0.21875 0  0.90625 0.21875 0  0.9375 0.21875 0  0.96875 0.21875 0  1 0.21875 0  1.03125 0.21875 0  1.0625 0.21875 0  1.09375 0.21875 0  1.125 0.21875 0  1.15625 0.21875 0  1.1875 0.21875 0  1.21875 0.21875 0  1.25 0.21875 0  1.28125 0.21875 0  1.3125 0.21875 0  1.34375 0.21875 0  1.375 0.21875 0  1.40625 0.21875 0  1.4375 0.21875 0  1.46875 0.21875 0  1.5 0.21875 0  0 0.25 0  0.03125 0.25 0  0.0625 0.25 0  0.09375 0.25 0  0.125 0.25 0  0.15625 0.25 0  0.1875 0.25 0  0.21875 0.25 0  0.25 0.25 0  0.28125 0.25 0  0.3125 0.25 0  0.34375 0.25 0  0.375 0.25 0  0.40625 0.25 0  0.4375 0.25 0  0.46875 0.25 0  0.5 0.25 0  0.53125 0.25 0  0.5625 0.25 0  0.59375 0.25 0  0.625 0.25 0  0.65625 0.25 0  0.6875 0.25 0  0.71875 0.25 0  0.75 0.25 0  0.78125 0.25 0  0.8125 0.25 0  0.84375 0.25 0  0.875 0.25 0  0.90625 0.25 0  0.9375 0.25 0  0.96875 0.25 0  1 0.25 0  1.03125 0.25 0  1.0625 0.25 0  1.09375 0.25 0  1.125 0.25 0  1.15625 0.25 0  1.1875 0.25 0  1.21875 0.25 0  1.25 0.25 0  1.28125 0.25 0  1.3125 0.25 0  1.34375 0.25 0  1.375 0.25 0  1.40625 0.25 0  1.4375 0.25 0  1.46875 0.25 0  1.5 0.25 0  0 0.28125 0  0.03125 0.28125 0  0.0625 0.28125 0  0.09375 0.28125 0  0.125 0.28125 0  0.15625 0.28125 0  0.1875 0.28125 0  0.21875 0.28125 0  0.25 0.28125 0  0.28125 0.28125 0  0.3125 0.28125 0  0.34375 0.28125 0  0.375 0.28125 0  0.40625 0.28125 0  0.4375 0.28125 0  0.46875 0.28125 0  0.5 0.28125 0  0.53125 0.28125 0  0.5625 0.28125 0  0.59375 0.28125 0  0.625 0.28125 0  0.65625 0.28125 0  0.6875 0.28125 0  0.71875 0.28125 0  0.75 0.28125 0  0.78125 0.28125 0  0.8125 0.28125 0  0.84375 0.28125 0  0.875 0.28125 0  0.90625 0.28125 0  0.9375 0.28125 0  0.96875 0.28125 0  1 0.28125 0  1.03125 0.28125 0  1.0625 0.28125 0  1.09375 0.28125 0  1.125 0.28125 0  1.15625 0.28125 0  1.1875 0.28125 0  1.21875 0.28125 0  1.25 0.28125 0  1.28125 0.28125 0  1.3125 0.28125 0  1.34375 0.28125 0  1.375 0.28125 0  1.40625 0.28125 0  1.4375 0.28125 0  1.46875 0.28125 0  1.5 0.28125 0  0 0.3125 0  0.03125 0.3125 0  0.0625 0.3125 0  0.09375 0.3125 0  0.125 0.3125 0  0.15625 0.3125 0  0.1875 0.3125 0  0.21875 0.3125 0  0.25 0.3125 0  0.28125 0.3125 0  0.3125 0.3125 0  0.34375 0.3125 0  0.375 0.3125 0  0.40625 0.3125 0  0.4375 0.3125 0  0.46875 0.3125 0  0.5 0.3125 0  0.53125 0.3125 0  0.5625 0.3125 0  0.59375 0.3125 0  0.625 0.3125 0  0.65625 0.3125 0  0.6875 0.3125 0  0.71875 0.3125 0  0.75 0.3125 0  0.78125 0.3125 0  0.8125 0.3125 0  0.84375 0.3125 0  0.875 0.3125 0  0.90625 0.3125 0  0.9375 0.3125 0  0.96875 0.3125 0  1 0.3125 0  1.03125 0.3125 0  1.0625 0.3125 0  1.09375 0.3125 0  1.125 0.3125 0  1.15625 0.3125 0  1.1875 0.3125 0  1.21875 0.3125 0  1.25 0.3125 0  1.28125 0.3125 0  1.3125 0.3125 0  1.34375 0.3125 0  1.375 0.3125 0  1.40625 0.3125 0  1.4375 0.3125 0  1.46875 0.3125 0  1.5 0.3125 0  0 0.34375 0  0.03125 0.34375 0  0.0625 0.34375 0  0.09375 0.34375 0  0.125 0.34375 0  0.15625 0.34375 0  0.1875 0.34375 0  0.21875 0.34375 0  0.25 0.34375 0  0.28125 0.34375 0  0.3125 0.34375 0  0.34375 0.34375 0  0.375 0.34375 0  0.40625 0.34375 0  0.4375 0.34375 0  0.46875 0.34375 0  0.5 0.34375 0  0.53125 0.34375 0  0.5625 0.34375 0  0.59375 0.34375 0  0.625 0.34375 0  0.65625 0.34375 0  0.6875 0.34375 0  0.71875 0.34375 0  0.75 0.34375 0  0.78125 0.34375 0  0.8125 0.34375 0  0.84375 0.34375 0  0.875 0.34375 0  0.90625 0.34375 0  0.9375 0.34375 0  0.96875 0.34375 0  1 0.34375 0  1.03125 0.34375 0  1.0625 0.34375 0  1.09375 0.34375 0  1.125 0.34375 0  1.15625 0.34375 0  1.1875 0.34375 0  1.21875 0.34375 0  1.25 0.34375 0  1.28125 0.34375 0  1.3125 0.34375 0  1.34375 0.34375 0  1.375 0.34375 0  1
[...]
<PointData  Vectors="f_17"> 
<DataArray  type="Float64"  Name="f_17"  NumberOfComponents="3" format="ascii">0.0000000000000000e+00 0.0000000000000000e+00 0.0000000000000000e+00  0.0000000000000000e+00 0.0000000000000000e+00 0.0000000000000000e+00  0.0000000000000000e+00 0.0000000000000000e+00 0.0000000000000000e+00  0.0000000000000000e+00 0.0000000000000000e+00 0.0000000000000000e+00  0.0000000000000000e+00 0.0000000000000000e+00 0.0000000000000000e+00  0.0000000000000000e+00 0.0000000000000000e+00 0.0000000000000000e+00  0.0000000000000000e+00 0.0000000000000000e+00 0.0000000000000000e+00  0.0000000000000000e+00 0.0000000000000000e+00 0.0000000000000000e+00  0.0000000000000000e+00 0.0000000000000000e+00 0.0000000000000000e+00  0.0000000000000000e+00 0.0000000000000000e+00 0.0000000000000000e+00  0.0000000000000000e+00 0.0000000000000000e+00 0.0000000000000000e+00  0.0000000000000000e+00 0.0000000000000000e+00 0.0000000000000000e+00  0.0000000000000000e+00 0.0000000000000000e+00 0.0000000000000000e+00  0.0000000000000000e+00 0.0000000000000000e+00 0.0000000000000000e+00  0.0000000000000000e+00 0.0000000000000000e+00 0.0000000000000000e+00  0.0000000000000000e+00 0.0000000000000000e+00 0.0000000000000000e+00  0.0000000000000000e+00 0.0000000000000000e+00 0.0000000000000000e+00  0.0000000000000000e+00 0.0000000000000000e+00 0.0000000000000000e+00  0.0000000000000000e+00 0.0000000000000000e+00 0.0000000000000000e+00  0.0000000000000000e+00 0.0000000000000000e+00 0.0000000000000000e+00  0.0000000000000000e+00 0.0000000000000000e+00 0.0000000000000000e+00  0.0000000000000000e+00 0.0000000000000000e+00 0.0000000000000000e+00  0.0000000000000000e+00 0.0000000000000000e+00 0.0000000000000000e+00  0.0000000000000000e+00 0.0000000000000000e+00 0.0000000000000000e+00  0.0000000000000000e+00 0.0000000000000000e+00 0.0000000000000000e+00  0.0000000000000000e+00 0.0000000000000000e+00 0.0000000000000000e+00  0.0000000000000000e+00 0.0000000000000000e+00 0.0000000000000000e+00  0.0000000000000000e+00 0.0000000000000000e+00 0.0000000000000000e+00  0.0000000000000000e+00 0.0000000000000000e+00 0.0000000000000000e+00  0.0000000000000000e+00 0.0000000000000000e+00 0.0000000000000000e+00  0.0000000000000000e+00 0.0000000000000000e+00 0.0000000000000000e+00  0.0000000000000000e+00 0.0000000000000000e+00 0.0000000000000000e+00  0.0000000000000000e+00 0.0000000000000000e+00 0.0000000000000000e+00  0.0000000000000000e+00 0.0000000000000000e+00 0.0000000000000000e+00  0.0000000000000000e+00 0.0000000000000000e+00 0.0000000000000000e+00  0.0000000000000000e+00 0.0000000000000000e+00 0.0000000000000000e+00  0.0000000000000000e+00 0.0000000000000000e+00 0.0000000000000000e+00  0.0000000000000000e+00 0.0000000000000000e+00 0.0000000000000000e+00  0.0000000000000000e+00 0.0000000000000000e+00 0.0000000000000000e+00  0.0000000000000000e+00 0.0000000000000000e+00 0.0000000000000000e+00  0.0000000000000000e+00 0.0000000000000000e+00 0.0000000000000000e+00  0.0000000000000000e+00 0.0000000000000000e+00 0.0000000000000000e+00  0.0000000000000000e+00 0.0000000000000000e+00 0.0000000000000000e+00  0.0000000000000000e+00 0.0000000000000000e+00 0.0000000000000000e+00  0.0000000000000000e+00 0.0000000000000000e+00 0.0000000000000000e+00  0.0000000000000000e+00 0.0000000000000000e+00 0.0000000000000000e+00  0.0000000000000000e+00 0.0000000000000000e+00 0.0000000000000000e+00  0.0000000000000000e+00 0.0000000000000000e+00 0.0000000000000000e+00  0.0000000000000000e+00 0.0000000000000000e+00 0.0000000000000000e+00  0.0000000000000000e+00 0.0000000000000000e+00 0.0000000000000000e+00  2.0914998312559580e-08 -6.6454299095528147e-10 0.0000000000000000e+00  -1.0111327503547643e-07 9.4369963932017181e-08 0.0000000000000000e+00  -2.6713511250226671e-08 -2.9298799171098593e-08 0.0000000000000000e+00  -2.1629926225483729e-07 -6.4770676601330044e-08 0.0000000000000000e+00  -1.9745474356479041e-07 -9.1033129858179606e-08 0.0000000000000000e+00  -1.8107670270937588e-07 -9.4378225907266210e-08 0.0000000000000000e+00  -1.6831461022517786e-07 -8.5251758490667377e-08 0.0000000000000000e+00  -1.4516053013790038e-07 -7.3696022384914126e-08 0.0000000000000000e+00  -1.2380237710283597e-07 -6.1360392355272717e-08 0.0000000000000000e+00  -1.0449787211514579e-07 -4.9465324867532644e-08 0.0000000000000000e+00  -8.8484614117733123e-08 -3.8412416035790947e-08 0.0000000000000000e+00  -7.6877853049700205e-08 -2.8222547685866640e-08 0.0000000000000000e+00  -6.9979803277222629e-08 -1.8848536182458292e-08 0.0000000000000000e+00  -6.7999545064420592e-08 -1.0184653764038275e-08 0.0000000000000000e+00  -7.1023506945785947e-08 -2.1041768889858407e-09 0.0000000000000000e+00  -7.9082732000046376e-08 5.5147613771329106e-09 0.0000000000000000e+00  -9.2196349374034459e-08 1.2764025633083091e-08 0.0000000000000000e+00  -1.1035889134287535e-07 1.9675997305859838e-08 0.0000000000000000e+00  -1.3350235735809188e-07 2.6195536979312960e-08 0.0000000000000000e+00  -1.6143026466031667e-07 3.2162297752040881e-08 0.0000000000000000e+00  -1.9373703035858845e-07 3.7313258728396064e-08 0.0000000000000000e+00  -2.2973532830570140e-07 4.1311902022103598e-08 0.0000000000000000e+00  -2.6841296688765153e-07 4.3802306115783874e-08 0.0000000000000000e+00  -3.0844445460828621e-07 4.4476711918892588e-08 0.0000000000000000e+00  -3.4825428097686798e-07 4.3138562714739370e-08 0.0000000000000000e+00  -3.8614326738316179e-07 3.9742189823942720e-08 0.0000000000000000e+00  -4.2040975772984208e-07 3.4400293562939719e-08 0.0000000000000000e+00  -4.4952400563852249e-07 2.7354156088925838e-08 0.0000000000000000e+00  -4.7214378463838163e-07 1.8930920662599027e-08 0.0000000000000000e+00  -4.8733909316503507e-07 9.4693774296358182e-09 0.0000000000000000e+00  -4.9423352749381209e-07 -6.8986870892765190e-10 0.0000000000000000e+00  -4.9271548694243037e-07 -1.1331767186558724e-08 0.0000000000000000e+00  -4.8183127348403870e-07 -2.2166247247762263e-08 0.0000000000000000e+00  -4.6293433458486167e-07 -3.3313226279269298e-08 0.0000000000000000e+00  -4.3297832565240756e-07 -4.4187080198031316e-08 0.0000000000000000e+00  -3.9823679723576879e-07 -5.5918687955317370e-08 0.0000000000000000e+00  -3.4588670611903084e-07 -6.5894464116664200e-08 0.0000000000000000e+00  -3.0251220653761815e-07 -7.9591961097186740e-08 0.0000000000000000e+00  -2.1408545467793135e-07 -8.4595823038532129e-08 0.0000000000000000e+00  -1.9161794073858296e-07 -1.0631989233714088e-07 0.0000000000000000e+00  -1.1530858361659607e-08 -8.8217546064298493e-08 0.0000000000000000e+00  -1.2780572250415070e-07 -1.4445734864368699e-07 0.0000000000000000e+00  3.5970560328023166e-07 -2.9035339148475433e-08 0.0000000000000000e+00  -3.7314303439287803e-07 -2.3704088099484178e-07 0.0000000000000000e+00  1.1484258473691710e-06 2.3602957028375265e-07 0.0000000000000000e+00  -2.4282657230729100e-06 -7.4929066906475821e-07 0.0000000000000000e+00  2.6888308170417416e-06 1.3677031190208701e-06 0.0000000000000000e+00  0.0000000000000000e+00 0.0000000000000000e+00 0.0000000000000000e+00  0.0000000000000000e+00 0.0000000000000000e+00 0.0000000000000000e+00  -1.2506596711972232e-06 6.5040097927988171e-07 0.0000000000000000e+00  8.0565203451170672e-07 -5.9253664031988743e-08 0.0000000000000000e+00  -6.7808648856649235e-08 7.5050955023513830e-08 0.0000000000000000e+00  -2.2979416932132894e-07 -4.2815842592276552e-08 0.0000000000000000e+00  -2.3588875620727965e-07 -9.3182994281533661e-08 0.0000000000000000e+00  -2.8539848370569926e-07 -1.1274590618676270e-07 0.0000000000000000e+00  -2.7655615285285127e-07 -1.1482293302610266e-07 0.0000000000000000e+00  -2.5860288198419105e-07 -1.0765127576280924e-07 0.0000000000000000e+00  -2.3740938357246954e-07 -9.5474592320402801e-08 0.0000000000000000e+00  -2.1432609127424023e-07 -8.1012157370675910e-08 0.0000000000000000e+00  -1.9390772859248608e-07 -6.5599656726783625e-08 0.0000000000000000e+00  -1.7724395518044223e-07 -4.9992723738614058e-08 0.0000000000000000e+00  -1.6514127271581745e-07 -3.4599468628253967e-08 0.0000000000000000e+00  -1.5806381348094694e-07 -1.9595508819576905e-08 0.0000000000000000e+00  -1.5617104410774074e-07 -5.0191968720611956e-09 0.0000000000000000e+00  -1.5953337630748182e-07 9.1596465967419346e-09 0.0000000000000000e+00  -1.6816106476087838e-07 2.2974153208487399e-08 0.0000000000000000e+00  -1.8202230749399625e-07 3.6389079947609379e-08 0.0000000000000000e+00  -2.0101813003903649e-07 4.9231678350444632e-08 0.0000000000000000e+00  -2.2491541654390545e-07 6.1141314031623253e-08 0.0000000000000000e+00  -2.5325680189378802e-07 7.1559272919182757e-08 0.0000000000000000e+00  -2.8527357410526852e-07 7.9775489278406176e-08 0.0000000000000000e+00  -3.1983267711201624e-07 8.5032259406428461e-08 0.0000000000000000e+00  -3.5545318202528205e-07 8.6662918215609530e-08 0.0000000000000000e+00  -3.9039139787952045e-07 8.4226686681094153e-08 0.0000000000000000e+00  -4.2280461078109614e-07 7.7597854393300655e-08 0.0000000000000000e+00  -4.5090714083182157e-07 6.6985688177268307e-08 0.0000000000000000e+00  -4.7317555113730347e-07 5.2878385286034198e-08 0.0000000000000000e+00  -4.8836065478508419e-07 3.5948143297683742e-08 0.0000000000000000e+00  -4.9571615864676326e-07 1.6915183579006744e-08 0.0000000000000000e+00  -4.9458159507070823e-07 -3.5133846294423358e-09 0.0000000000000000e+00  -4.8512653105443756e-07 -2.4805372877208432e-08 0.0000000000000000e+00  -4.6661534818535362e-07 -4.6413988932687027e-08 0.0000000000000000e+00  -4.4074497644375099e-07 -6.8246888129682220e-08 0.0000000000000000e+00  -4.0460648942894536e-07 -8.9556373352605735e-08 0.0000000000000000e+00  -3.6500919647869570e-07 -1.1123061483752091e-07 0.0000000000000000e+00  -3.0915064312836619e-07 -1.3056320622897183e-07 0.0000000000000000e+00  -2.6464565453380370e-07 -1.5230733423965038e-07 0.0000000000000000e+00  -1.7749649314878904e-07 -1.6447336352652398e-07 0.0000000000000000e+00  -1.6027774874853401e-07 -1.8949544566007207e-07 0.0000000000000000e+00  9.1474417810937872e-09 -1.7502909044539767e-07 0.0000000000000000e+00  -1.2299801382662249e-07 -2.2272922914547306e-07 0.0000000000000000e+00  3.3229166109119761e-07 -1.1181810324128336e-07 0.0000000000000000e+00  -4.2829043020590307e-07 -2.8628418563666933e-07 0.0000000000000000e+00  9.7802785341403174e-07 1.5032102182034538e-07 0.0000000000000000e+00  -2.4505327868961662e-06 -6.1642774436460797e-07 0.0000000000000000e+00  2.6462631631327951e-06 1.4053213199162506e-06 0.0000000000000000e+00  0.0000000000000000e+00 0.0000000000000000e+00 0.0000000000000000e+00  0.0000000000000000e+00 0.0000000000000000e+00 0.0000000000000000e+00  -2.3031440963171557e-06 1.1161170881069461e-06 0.0000000000000000e+00  1.7546188225755546e-06 -1.6990309226133563e-07 0.0000000000000000e+00  -3.3248850546816889e-07 2.2293846426519934e-07 0.0000000000000000e+00  5.0254041700018618e-08 -3.1686853269978564e-08 0.0000000000000000e+00  -8.9520899481932513e-08 -5.9265379997745798e-08 0.0000000000000000e+00  -1.3994492438709389e-07 -1.0702848770286196e-07 0.0000000000000000e+00  -1.4966539184104479e-07 -1.2086411974349241e-07 0.0000000000000000e+00  -1.6978978346250161e-07 -1.2056574819667341e-07 0.0000000000000000e+00  -1.7508210136011751e-07 -1.1100827133842728e-07 0.0000000000000000e+00  -1.7616409699225369e-07 -9.6135310368415399e-08 0.0000000000000000e+00  -1.7536327750643470e-07 -7.8504609318209352e-08 0.0000000000000000e+00  -1.7382413947296931e-07 -5.9612222887051498e-08 0.0000000000000000e+00  -1.7324623571195914e-07 -4.0351460598117919e-08 0.0000000000000000e+00  -1.7441264635654386e-07 -2.1196859856882133e-08 0.0000000000000000e+00  -1.7789694884921077e-07 -2.3549098404155274e-09 0.0000000000000000e+00  -1.8409741098663418e-07 1.6127476118228573e-08 0.0000000000000000e+00  -1.9328720616177605e-07 3.4258897847911366e-08 0.0000000000000000e+00  -2.0567460468999496e-07 5.1988501202281056e-08 0.0000000000000000e+00  -2.2138740337572772e-07 6.9089323226620076e-08 0.0000000000000000e+00  -2.4041438626897224e-07 8.5063529149738787e-08 0.0000000000000000e+00  -2.6250742926773005e-07 9.9107980614731736e-08 0.0000000000000000e+00  -2.8707774589922217e-07 1.1017359612526599e-07 0.0000000000000000e+00  -3.1313143409776911e-07 1.1712454200797215e-07 0.0000000000000000e+00  -3.3929443857095015e-07 1.1896228485926076e-07 0.0000000000000000e+00  -3.6393171450019448e-07 1.1504622473803210e-07 0.0000000000000000e+00  -3.8536363108244711e-07 1.0523655533521902e-07 0.0000000000000000e+00  -4.0206957959520874e-07 8.9916985517822047e-08 0.0000000000000000e+00  -4.1292096133594170e-07 6.9893192086539091e-08 0.0000000000000000e+00  -4.1717825782227149e-07 4.6225784125671794e-08 0.0000000000000000e+00  -4.1469326197962959e-07 2.0020251497723618e-08 0.0000000000000000e+00  -4.0542072384900798e-07 -7.6853137878945490e-09 0.0000000000000000e+00  -3.9016107765239964e-07 -3.6109572946456874e-08 0.0000000000000000e+00  -3.6872017508836182e-07 -6.4527659528236680e-08 0.0000000000000000e+00  -3.4339203566911154e-07 -9.2728429253695873e-08 0.0000000000000000e+00  -3.1165993555000597e-07 -1.1985258082669020e-07 0.0000000000000000e+00  -2.8103622047189818e-07 -1.4666357529931510e-07 0.0000000000000000e+00  -2.3890212673796119e-07 -1.7029116820004025e-07 0.0000000000000000e+00  -2.1396453298251081e-07 -1.9512897054287609e-07 0.0000000000000000e+00  -1.5204965074190680e-07 -2.0916450517098994e-07 0.0000000000000000e+00  -1.6704762156582301e-07 -2.3351693846407569e-07 0.0000000000000000e+00  -3.7185735603479798e-08 -2.1833432987214179e-07 0.0000000000000000e+00  -2.1260826885843521e-07 -2.5909291163387446e-07 0.0000000000000000e+00  1.8372247079306937e-07 -1.5438888398623468e-07 0.0000000000000000e+00  -6.0984302720920833e-07 -3.1084137809583878e-07 0.0000000000000000e+00  7.1100526241390040e-07 7.2666558048333470e-08 0.0000000000000000e+00  -2.6415080847005603e-06 -5.8226009988779505e-07 0.0000000000000000e+00  2.2730066846119125e-06 1.1813485240214381e-06 0.0000000000000000e+00  0.0000000000000000e+00 0.0000000000000000e+00 0.0000000000000000e+00  0.0000000000000000e+00 0.0000000000000000e+00 0.0000000000000000e+00  -2.5605926566519161e-06 1.1578979996980481e-06 0.0000000000000000e+00  2.3612884563648393e-06 -2.0733407601299196e-07 0.0000000000000000e+00  -6.3993072975998050e-07 2.9461559153563915e-07 0.0000000000000000e+00  3.0931332859567440e-07 -2.8775563301255724e-08 0.0000000000000000e+00  -1.1589843672524514e-07 2.6535267443119647e-09 0.0000000000000000e+00  -5.4483431337651342e-08 -7.5830021056586547e-08 0.0000000000000000e+00  -9.6881711461959267e-08 -9.2358223139447432e-08 0.0000000000000000e+00  -1.2624334907792221e-07 -1.0384619227408334e-07 0.0000000000000000e+00  -1.4072381170898509e-07 -1.0105225691630498e-07 0.0000000000000000e+00  -1.5476403103057453e-07 -9.0860966534771212e-08 0.0000000000000000e+00  -1.6379014632327051e-07 -7.5725261102382572e-08 0.0000000000000000e+00  -1.7079559423889362e-07 -5.7686766246002863e-08 0.0000000000000000e+00  -1.7696157464230777e-07 -3.8127804619435776e-08 0.0000000000000000e+00  -1.8299719487147704e-07 -1.7874923252635241e-08 0.0000000000000000e+00  -1.8961571643280694e-07 2.6020439545043627e-09 0.0000000000000000e+00  -1.9726245015192934e-07 2.3099502062683491e-08 0.0000000000000000e+00  -2.0630793872352452e-07 4.3544955247550163e-08 0.0000000000000000e+00  -2.1708059582094406e-07 6.3844442379302956e-08 0.0000000000000000e+00  -2.2986114193912319e-07 8.3709081600133499e-08 0.0000000000000000e+00  -2.4482134925654051e-07 1.0249607154244387e-07 0.0000000000000000e+00  -2.6189480128815846e-07 1.1912965454586069e-07 0.0000000000000000e+00  -2.8062900985997423e-07 1.3216595358988334e-07 0.0000000000000000e+00  -3.0008521696323125e-07 1.4002373427164021e-07 0.0000000000000000e+00  -3.1886610052721785e-07 1.4132830651864484e-07 0.0000000000000000e+00  -3.3528786121715908e-07 1.3525161691166967e-07 0.0000000000000000e+00  -3.4768711977185368e-07 1.2172082286720615e-07 0.0000000000000000e+00  -3.5470581678173136e-07 1.0142586440608755e-07 0.0000000000000000e+00  -3.5557030024122898e-07 7.5634438268276168e-08 0.0000000000000000e+00  -3.5005565536143840e-07 4.5912837192232612e-08 0.0000000000000000e+00  -3.3864411489854707e-07 1.3818489392676746e-08 0.0000000000000000e+00  -3.2190725059000189e-07 -1.9268602692805073e-08 0.0000000000000000e+00  -3.0126934370551835e-07 -5.2343917477825743e-08 0.0000000000000000e+00  -2.7695151256511289e-07 -8.4555404723972283e-08 0.0000000000000000e+00  -2.5178056383966813e-07 -1.1560807447343366e-07 0.0000000000000000e+00  -2.2324764362368943e-07 -1.4458368552361207e-07 0.0000000000000000e+00  -1.9959771254439530e-07 -1.7210064752113049e-07 0.0000000000000000e+00  -1.6732644704367289e-07 -1.9523875639205389e-07 0.0000000000000000e+00  -1.5700816365022136e-07 -2.1794066083630286e-07 0.0000000000000000e+00  -1.1087400957620579e-07 -2.2866307939467626e-07 0.0000000000000000e+00  -1.4856980517343661e-07 -2.4703304440144416e-07 0.0000000000000000e+00  -3.6258484806940676e-08 -2.2717967662092999e-07 0.0000000000000000e+00  -2.4175441833109553e-07 -2.5798200541013013e-07 0.0000000000000000e+00  1.4756898702041055e-07 -1.5839231507634444e-07 0.0000000000000000e+00  -6.7817360542320772e-07 -2.9841512026714390e-07 0.0000000000000000e+00  6.6646492703257459e-07 3.8247703038004397e-08 0.0000000000000000e+00  -2.6884718094302172e-06 -5.3877804836581566e-07 0.0000000000000000e+00  2.2596543102044431e-06 1.0173187399622524e-06 0.0000000000000000e+00  0.0000000000000000e+00 0.0000000000000000e+00 0.0000000000000000e+00  0.0000000000000000e+00 0.0000000000000000e+00 0.0000000000000000e+00  -2.5126722661850293e-06 1.0491980152834762e-06 0.0000000000000000e+00  2.6023285503191905e-06 -1.9315275432674639e-07 0.0000000000000000e+00  -7.8570133583143243e-07 2.9139269741133874e-07 0.0000000000000000e+00  5.1285475296872942e-07 -2.2260860187416427e-08 0.0000000000000000e+00  -1.7182803353660367e-07 5.0280766592136259e-08 0.0000000000000000e+00  4.8509207501915472e-08 -4.6589897175954888e-08 0.0000000000000000e+00  -6.0342857200190477e-08 -5.6191885486552882e-08 0.0000000000000000e+00  -7.0364206818069185e-08 -7.8635959843048544e-08 0.0000000000000000e+00  -9.6181285314330056e-08 -8.0221664929503305e-08 0.0000000000000000e+00  -1.1837174343741833e-07 -7.5362710783713533e-08 0.0000000000000000e+00  -1.3484313424223898e-07 -6.3571745681864960e-08 0.0000000000000000e+00  -1.4959403527371724e-07 -4.7764653575521793e-08 0.0000000000000000e+00  -1.6208292329259776e-07 -2.9423656098274062e-08 0.0000000000000000e+00  -1.7329318041370964e-07 -9.6508947557178581e-09 0.0000000000000000e+00  -1.8379046442547984e-07 1.0871489715329180e-08 0.0000000000000000e+00  -1.9398260749764779e-07 3.1817158915695010e-08 0.0000000000000000e+00  -2.0428499463020023e-07 5.3066135829644810e-08 0.0000000000000000e+00  -2.1510052875200940e-07 7.4535328670949419e-08 0.0000000000000000e+00  -2.2685483050790088e-07 9.5936537933429443e-08 0.0000000000000000e+00  -2.3991590657096873e-07 1.1652585382292057e-07 0.0000000000000000e+00  -2.5441474286716042e-07 1.3494424150996116e-07 0.0000000000000000e+00  -2.7001813328068981e-07 1.4927326842817649e-07 0.0000000000000000e+00  -2.8575913087081859e-07 1.5736680058186775e-07 0.0000000000000000e+00  -3.0006215474846058e-07 1.5738092221578160e-07 0.0000000000000000e+00  -3.1100470775574185e-07 1.4829884711851439e-07 0.0000000000000000e+00  -3.1677837282306772e-07 1.3022782108190378e-07 0.0000000000000000e+00  -3.1611040388567350e-07 1.0435802731415198e-07 0.0000000000000000e+00  -3.0860136888927023e-07 7.2625481330180948e-08 0.0000000000000000e+00  -2.9462814036095098e-07 3.7254776287623133e-08 0.0000000000000000e+00  -2.7539935209914994e-07 3.1720274029545625e-10 0.0000000000000000e+00  -2.5217052531951233e-07 -3.6493256593086114e-08 0.0000000000000000e+00  -2.2698130071114217e-07 -7.2043644709833223e-08 0.0000000000000000e+00  -2.0042236376562166e-07 -1.0548055201767323e-07 0.0000000000000000e+00  -1.7569224999818234e-07 -1.36563215122