<?xml version="1.0"?>
<VTKFile type="UnstructuredGrid"  version="0.1"  >
<UnstructuredGrid>
<Piece  NumberOfPoints="1617" NumberOfCells="3072">
<Points>
<DataArray  type="Float64"  NumberOfComponents="3"  format="ascii">0 0 0  0.03125 0 0  0.0625 0 0  0.09375 0 0  0.125 0 0  0.15625 0 0  0.1875 0 0  0.21875 0 0  0.25 0 0  0.28125 0 0  0.3125 0 0  0.34375 0 0  0.375 0 0  0.40625 0 0  0.4375 0 0  0.46875 0 0  0.5 0 0  0.53125 0 0  0.5625 0 0  0.59375 0 0  0.625 0 0  0.65625 0 0  0.6875 0 0  0.71875 0 0  0.75 0 0  0.78125 0 0  0.8125 0 0  0.84375 0 0  0.875 0 0  0.90625 0 0  0.9375 0 0  0.96875 0 0  1 0 0  1.03125 0 0  1.0625 0 0  1.09375 0 0  1.125 0 0  1.15625 0 0  1.1875 0 0  1.21875 0 0  1.25 0 0  1.28125 0 0  1.3125 0 0  1.34375 0 0  1.375 0 0  1.40625 0 0  1.4375 0 0  1.46875 0 0  1.5 0 0  0 0.03125 0  0.03125 0.03125 0  0.0625 0.03125 0  0.09375 0.03125 0  0.125 0.03125 0  0.15625 0.03125 0  0.1875 0.03125 0  0.21875 0.03125 0  0.25 0.03125 0  0.28125 0.03125 0  0.3125 0.03125 0  0.34375 0.03125 0  0.375 0.03125 0  0.40625 0.03125 0  0.4375 0.03125 0  0.46875 0.03125 0  0.5 0.03125 0  0.53125 0.03125 0  0.5625 0.03125 0  0.59375 0.03125 0  0.625 0.03125 0  0.65625 0.03125 0  0.6875 0.03125 0  0.71875 0.03125 0  0.75 0.03125 0  0.78125 0.03125 0  0.8125 0.03125 0  0.84375 0.03125 0  0.875 0.03125 0  0.90625 0.03125 0  0.9375 0.03125 0  0.96875 0.03125 0  1 0.03125 0  1.03125 0.03125 0  1.0625 0.03125 0  1.09375 0.03125 0  1.125 0.03125 0  1.15625 0.03125 0  1.1875 0.03125 0  1.21875 0.03125 0  1.25 0.03125 0  1.28125 0.03125 0  1.3125 0.03125 0  1.34375 0.03125 0  1.375 0.03125 0  1.40625 0.03125 0  1.4375 0.03125 0  1.46875 0.03125 0  1.5 0.03125 0  0 0.0625 0  0.03125 0.0625 0  0.0625 0.0625 0  0.09375 0.0625 0  0.125 0.0625 0  0.15625 0.0625 0  0.1875 0.0625 0  0.21875 0.0625 0  0.25 0.0625 0  0.28125 0.0625 0  0.3125 0.0625 0  0.34375 0.0625 0  0.375 0.0625 0  0.40625 0.0625 0  0.4375 0.0625 0  0.46875 0.0625 0  0.5 0.0625 0  0.53125 0.0625 0  0.5625 0.0625 0  0.59375 0.0625 0  0.625 0.0625 0  0.65625 0.0625 0  0.6875 0.0625 0  0.71875 0.0625 0  0.75 0.0625 0  0.78125 0.0625 0  0.8125 0.0625 0  0.84375 0.0625 0  0.875 0.0625 0  0.90625 0.0625 0  0.9375 0.0625 0  0.96875 0.0625 0  1 0.0625 0  1.03125 0.0625 0  1.0625 0.0625 0  1.09375 0.0625 0  1.125 0.0625 0  1.15625 0.0625 0  1.1875 0.0625 0  1.21875 0.0625 0  1.25 0.0625 0  1.28125 0.0625 0  1.3125 0.0625 0  1.34375 0.0625 0  1.375 0.0625 0  1.40625 0.0625 0  1.4375 0.0625 0  1.46875 0.0625 0  1.5 0.0625 0  0 0.09375 0  0.03125 0.09375 0  0.0625 0.09375 0  0.09375 0.09375 0  0.125 0.09375 0  0.15625 0.09375 0  0.1875 0.09375 0  0.21875 0.09375 0  0.25 0.09375 0  0.28125 0.09375 0  0.3125 0.09375 0  0.34375 0.09375 0  0.375 0.09375 0  0.40625 0.09375 0  0.4375 0.09375 0  0.46875 0.09375 0  0.5 0.09375 0  0.53125 0.09375 0  0.5625 0.09375 0  0.59375 0.09375 0  0.625 0.09375 0  0.65625 0.09375 0  0.6875 0.09375 0  0.71875 0.09375 0  0.75 0.09375 0  0.78125 0.09375 0  0.8125 0.09375 0  0.84375 0.09375 0  0.875 0.09375 0  0.90625 0.09375 0  0.9375 0.09375 0  0.96875 0.09375 0  1 0.09375 0  1.03125 0.09375 0  1.0625 0.09375 0  1.09375 0.09375 0  1.125 0.09375 0  1.15625 0.09375 0  1.1875 0.09375 0  1.21875 0.09375 0  1.25 0.09375 0  1.28125 0.09375 0  1.3125 0.09375 0  1.34375 0.09375 0  1.375 0.09375 0  1.40625 0.09375 0  1.4375 0.09375 0  1.46875 0.09375 0  1.5 0.09375 0  0 0.125 0  0.03125 0.125 0  0.0625 0.125 0  0.09375 0.125 0  0.125 0.125 0  0.15625 0.125 0  0.1875 0.125 0  0.21875 0.125 0  0.25 0.125 0  0.28125 0.125 0  0.3125 0.125 0  0.34375 0.125 0  0.375 0.125 0  0.40625 0.125 0  0.4375 0.125 0  0.46875 0.125 0  0.5 0.125 0  0.53125 0.125 0  0.5625 0.125 0  0.59375 0.125 0  0.625 0.125 0  0.65625 0.125 0  0.6875 0.125 0  0.71875 0.125 0  0.75 0.125 0  0.78125 0.125 0  0.8125 0.125 0  0.84375 0.125 0  0.875 0.125 0  0.90625 0.125 0  0.9375 0.125 0  0.96875 0.125 0  1 0.125 0  1.03125 0.125 0  1.0625 0.125 0  1.09375 0.125 0  1.125 0.125 0  1.15625 0.125 0  1.1875 0.125 0  1.21875 0.125 0  1.25 0.125 0  1.28125 0.125 0  1.3125 0.125 0  1.34375 0.125 0  1.375 0.125 0  1.40625 0.125 0  1.4375 0.125 0  1.46875 0.125 0  1.5 0.125 0  0 0.15625 0  0.03125 0.15625 0  0.0625 0.15625 0  0.09375 0.15625 0  0.125 0.15625 0  0.15625 0.15625 0  0.1875 0.15625 0  0.21875 0.15625 0  0.25 0.15625 0  0.28125 0.15625 0  0.3125 0.15625 0  0.34375 0.15625 0  0.375 0.15625 0  0.40625 0.15625 0  0.4375 0.15625 0  0.46875 0.15625 0  0.5 0.15625 0  0.53125 0.15625 0  0.5625 0.15625 0  0.59375 0.15625 0  0.625 0.15625 0  0.65625 0.15625 0  0.6875 0.15625 0  0.71875 0.15625 0  0.75 0.15625 0  0.78125 0.15625 0  0.8125 0.15625 0  0.84375 0.15625 0  0.875 0.15625 0  0.90625 0.15625 0  0.9375 0.15625 0  0.96875 0.15625 0  1 0.15625 0  1.03125 0.15625 0  1.0625 0.15625 0  1.09375 0.15625 0  1.125 0.15625 0  1.15625 0.15625 0  1.1875 0.15625 0  1.21875 0.15625 0  1.25 0.15625 0  1.28125 0.15625 0  1.3125 0.15625 0  1.34375 0.15625 0  1.375 0.15625 0  1.40625 0.15625 0  1.4375 0.15625 0  1.46875 0.15625 0  1.5 0.15625 0  0 0.1875 0  0.03125 0.1875 0  0.0625 0.1875 0  0.09375 0.1875 0  0.125 0.1875 0  0.15625 0.1875 0  0.1875 0.1875 0  0.21875 0.1875 0  0.25 0.1875 0  0.28125 0.1875 0  0.3125 0.1875 0  0.34375 0.1875 0  0.375 0.1875 0  0.40625 0.1875 0  0.4375 0.1875 0  0.46875 0.1875 0  0.5 0.1875 0  0.53125 0.1875 0  0.5625 0.1875 0  0.59375 0.1875 0  0.625 0.1875 0  0.65625 0.1875 0  0.6875 0.1875 0  0.71875 0.1875 0  0.75 0.1875 0  0.78125 0.1875 0  0.8125 0.1875 0  0.84375 0.1875 0  0.875 0.1875 0  0.90625 0.1875 0  0.9375 0.1875 0  0.96875 0.1875 0  1 0.1875 0  1.03125 0.1875 0  1.0625 0.1875 0  1.09375 0.1875 0  1.125 0.1875 0  1.15625 0.1875 0  1.1875 0.1875 0  1.21875 0.1875 0  1.25 0.1875 0  1.28125 0.1875 0  1.3125 0.1875 0  1.34375 0.1875 0  1.375 0.1875 0  1.40625 0.1875 0  1.4375 0.1875 0  1.46875 0.1875 0  1.5 0.1875 0  0 0.21875 0  0.03125 0.21875 0  0.0625 0.21875 0  0.09375 0.21875 0  0.125 0.21875 0  0.15625 0.21875 0  0.1875 0.21875 0  0.21875 0.21875 0  0.25 0.21875 0  0.28125 0.21875 0  0.3125 0.21875 0  0.34375 0.21875 0  0.375 0.21875 0  0.40625 0.21875 0  0.4375 0.21875 0  0.46875 0.21875 0  0.5 0.21875 0  0.53125 0.21875 0  0.5625 0.21875 0  0.59375 0.21875 0  0.625 0.21875 0  0.65625 0.21875 0  0.6875 0.21875 0  0.71875 0.21875 0  0.75 0.21875 0  0.78125 0.21875 0  0.8125 0.21875 0  0.84375 0.21875 0  0.875 0.21875 0  0.90625 0.21875 0  0.9375 0.21875 0  0.96875 0.21875 0  1 0.21875 0  1.03125 0.21875 0  1.0625 0.21875 0  1.09375 0.21875 0  1.125 0.21875 0  1.15625 0.21875 0  1.1875 0.21875 0  1.21875 0.21875 0  1.25 0.21875 0  1.28125 0.21875 0  1.3125 0.21875 0  1.34375 0.21875 0  1.375 0.21875 0  1.40625 0.21875 0  1.4375 0.21875 0  1.46875 0.21875 0  1.5 0.21875 0  0 0.25 0  0.03125 0.25 0  0.0625 0.25 0  0.09375 0.25 0  0.125 0.25 0  0.15625 0.25 0  0.1875 0.25 0  0.21875 0.25 0  0.25 0.25 0  0.28125 0.25 0  0.3125 0.25 0  0.34375 0.25 0  0.375 0.25 0  0.40625 0.25 0  0.4375 0.25 0  0.46875 0.25 0  0.5 0.25 0  0.53125 0.25 0  0.5625 0.25 0  0.59375 0.25 0  0.625 0.25 0  0.65625 0.25 0  0.6875 0.25 0  0.71875 0.25 0  0.75 0.25 0  0.78125 0.25 0  0.8125 0.25 0  0.84375 0.25 0  0.875 0.25 0  0.90625 0.25 0  0.9375 0.25 0  0.96875 0.25 0  1 0.25 0  1.03125 0.25 0  1.0625 0.25 0  1.09375 0.25 0  1.125 0.25 0  1.15625 0.25 0  1.1875 0.25 0  1.21875 0.25 0  1.25 0.25 0  1.28125 0.25 0  1.3125 0.25 0  1.34375 0.25 0  1.375 0.25 0  1.40625 0.25 0  1.4375 0.25 0  1.46875 0.25 0  1.5 0.25 0  0 0.28125 0  0.03125 0.28125 0  0.0625 0.28125 0  0.09375 0.28125 0  0.125 0.28125 0  0.15625 0.28125 0  0.1875 0.28125 0  0.21875 0.28125 0  0.25 0.28125 0  0.28125 0.28125 0  0.3125 0.28125 0  0.34375 0.28125 0  0.375 0.28125 0  0.40625 0.28125 0  0.4375 0.28125 0  0.46875 0.28125 0  0.5 0.28125 0  0.53125 0.28125 0  0.5625 0.28125 0  0.59375 0.28125 0  0.625 0.28125 0  0.65625 0.28125 0  0.6875 0.28125 0  0.71875 0.28125 0  0.75 0.28125 0  0.78125 0.28125 0  0.8125 0.28125 0  0.84375 0.28125 0  0.875 0.28125 0  0.90625 0.28125 0  0.9375 0.28125 0  0.96875 0.28125 0  1 0.28125 0  1.03125 0.28125 0  1.0625 0.28125 0  1.09375 0.28125 0  1.125 0.28125 0  1.15625 0.28125 0  1.1875 0.28125 0  1.21875 0.28125 0  1.25 0.28125 0  1.28125 0.28125 0  1.3125 0.28125 0  1.34375 0.28125 0  1.375 0.28125 0  1.40625 0.28125 0  1.4375 0.28125 0  1.46875 0.28125 0  1.5 0.28125 0  0 0.3125 0  0.03125 0.3125 0  0.0625 0.3125 0  0.09375 0.3125 0  0.125 0.3125 0  0.15625 0.3125 0  0.1875 0.3125 0  0.21875 0.3125 0  0.25 0.3125 0  0.28125 0.3125 0  0.3125 0.3125 0  0.34375 0.3125 0  0.375 0.3125 0  0.40625 0.3125 0  0.4375 0.3125 0  0.46875 0.3125 0  0.5 0.3125 0  0.53125 0.3125 0  0.5625 0.3125 0  0.59375 0.3125 0  0.625 0.3125 0  0.65625 0.3125 0  0.6875 0.3125 0  0.71875 0.3125 0  0.75 0.3125 0  0.78125 0.3125 0  0.8125 0.3125 0  0.84375 0.3125 0  0.875 0.3125 0  0.90625 0.3125 0  0.9375 0.3125 0  0.96875 0.3125 0  1 0.3125 0  1.03125 0.3125 0  1.0625 0.3125 0  1.09375 0.3125 0  1.125 0.3125 0  1.15625 0.3125 0  1.1875 0.3125 0  1.21875 0.3125 0  1.25 0.3125 0  1.28125 0.3125 0  1.3125 0.3125 0  1.34375 0.3125 0  1.375 0.3125 0  1.40625 0.3125 0  1.4375 0.3125 0  1.46875 0.3125 0  1.5 0.3125 0  0 0.34375 0  0.03125 0.34375 0  0.0625 0.34375 0  0.09375 0.34375 0  0.125 0.34375 0  0.15625 0.34375 0  0.1875 0.34375 0  0.21875 0.34375 0  0.25 0.34375 0  0.28125 0.34375 0  0.3125 0.34375 0  0.34375 0.34375 0  0.375 0.34375 0  0.40625 0.34375 0  0.4375 0.34375 0  0.46875 0.34375 0  0.5 0.34375 0  0.53125 0.34375 0  0.5625 0.34375 0  0.59375 0.34375 0  0.625 0.34375 0  0.65625 0.34375 0  0.6875 0.34375 0  0.71875 0.34375 0  0.75 0.34375 0  0.78125 0.34375 0  0.8125 0.34375 0  0.84375 0.34375 0  0.875 0.34375 0  0.90625 0.34375 0  0.9375 0.34375 0  0.96875 0.34375 0  1 0.34375 0  1.03125 0.34375 0  1.0625 0.34375 0  1.09375 0.34375 0  1.125 0.34375 0  1.15625 0.34375 0  1.1875 0.34375 0  1.21875 0.34375 0  1.25 0.34375 0  1.28125 0.34375 0  1.3125 0.34375 0  1.34375 0.34375 0  1.375 0.34375 0  1
[...]
<PointData  Vectors="f_17"> 
<DataArray  type="Float64"  Name="f_17"  NumberOfComponents="3" format="ascii">0.0000000000000000e+00 0.0000000000000000e+00 0.0000000000000000e+00  0.0000000000000000e+00 0.0000000000000000e+00 0.0000000000000000e+00  0.0000000000000000e+00 0.0000000000000000e+00 0.0000000000000000e+00  0.0000000000000000e+00 0.0000000000000000e+00 0.0000000000000000e+00  0.0000000000000000e+00 0.0000000000000000e+00 0.0000000000000000e+00  0.0000000000000000e+00 0.0000000000000000e+00 0.0000000000000000e+00  0.0000000000000000e+00 0.0000000000000000e+00 0.0000000000000000e+00  0.0000000000000000e+00 0.0000000000000000e+00 0.0000000000000000e+00  0.0000000000000000e+00 0.0000000000000000e+00 0.0000000000000000e+00  0.0000000000000000e+00 0.0000000000000000e+00 0.0000000000000000e+00  0.0000000000000000e+00 0.0000000000000000e+00 0.0000000000000000e+00  0.0000000000000000e+00 0.0000000000000000e+00 0.0000000000000000e+00  0.0000000000000000e+00 0.0000000000000000e+00 0.0000000000000000e+00  0.0000000000000000e+00 0.0000000000000000e+00 0.0000000000000000e+00  0.0000000000000000e+00 0.0000000000000000e+00 0.0000000000000000e+00  0.0000000000000000e+00 0.0000000000000000e+00 0.0000000000000000e+00  0.0000000000000000e+00 0.0000000000000000e+00 0.0000000000000000e+00  0.0000000000000000e+00 0.0000000000000000e+00 0.0000000000000000e+00  0.0000000000000000e+00 0.0000000000000000e+00 0.0000000000000000e+00  0.0000000000000000e+00 0.0000000000000000e+00 0.0000000000000000e+00  0.0000000000000000e+00 0.0000000000000000e+00 0.0000000000000000e+00  0.0000000000000000e+00 0.0000000000000000e+00 0.0000000000000000e+00  0.0000000000000000e+00 0.0000000000000000e+00 0.0000000000000000e+00  0.0000000000000000e+00 0.0000000000000000e+00 0.0000000000000000e+00  0.0000000000000000e+00 0.0000000000000000e+00 0.0000000000000000e+00  0.0000000000000000e+00 0.0000000000000000e+00 0.0000000000000000e+00  0.0000000000000000e+00 0.0000000000000000e+00 0.0000000000000000e+00  0.0000000000000000e+00 0.0000000000000000e+00 0.0000000000000000e+00  0.0000000000000000e+00 0.0000000000000000e+00 0.0000000000000000e+00  0.0000000000000000e+00 0.0000000000000000e+00 0.0000000000000000e+00  0.0000000000000000e+00 0.0000000000000000e+00 0.0000000000000000e+00  0.0000000000000000e+00 0.0000000000000000e+00 0.0000000000000000e+00  0.0000000000000000e+00 0.0000000000000000e+00 0.0000000000000000e+00  0.0000000000000000e+00 0.0000000000000000e+00 0.0000000000000000e+00  0.0000000000000000e+00 0.0000000000000000e+00 0.0000000000000000e+00  0.0000000000000000e+00 0.0000000000000000e+00 0.0000000000000000e+00  0.0000000000000000e+00 0.0000000000000000e+00 0.0000000000000000e+00  0.0000000000000000e+00 0.0000000000000000e+00 0.0000000000000000e+00  0.0000000000000000e+00 0.0000000000000000e+00 0.0000000000000000e+00  0.0000000000000000e+00 0.0000000000000000e+00 0.0000000000000000e+00  0.0000000000000000e+00 0.0000000000000000e+00 0.0000000000000000e+00  0.0000000000000000e+00 0.0000000000000000e+00 0.0000000000000000e+00  0.0000000000000000e+00 0.0000000000000000e+00 0.0000000000000000e+00  0.0000000000000000e+00 0.0000000000000000e+00 0.0000000000000000e+00  0.0000000000000000e+00 0.0000000000000000e+00 0.0000000000000000e+00  0.0000000000000000e+00 0.0000000000000000e+00 0.0000000000000000e+00  0.0000000000000000e+00 0.0000000000000000e+00 0.0000000000000000e+00  0.0000000000000000e+00 0.0000000000000000e+00 0.0000000000000000e+00  0.0000000000000000e+00 0.0000000000000000e+00 0.0000000000000000e+00  0.0000000000000000e+00 0.0000000000000000e+00 0.0000000000000000e+00  1.9124163268516355e-07 2.1556165420761387e-08 0.0000000000000000e+00  -2.4025132905736441e-07 1.4872038065100446e-07 0.0000000000000000e+00  -2.1289481752765917e-07 2.5151643465839436e-08 0.0000000000000000e+00  -4.3477428774689169e-07 -2.3622504449478215e-08 0.0000000000000000e+00  -4.4264257258139400e-07 -5.9556321681275548e-08 0.0000000000000000e+00  -4.5046906268782582e-07 -7.1260808556719575e-08 0.0000000000000000e+00  -4.5730871988074361e-07 -6.9002274261667509e-08 0.0000000000000000e+00  -4.4848043522551701e-07 -6.3019093827869988e-08 0.0000000000000000e+00  -4.3765412861957659e-07 -5.5047844514429646e-08 0.0000000000000000e+00  -4.2571061699092715e-07 -4.6452991478138339e-08 0.0000000000000000e+00  -4.1459415443253223e-07 -3.7812825818290846e-08 0.0000000000000000e+00  -4.0607932983162245e-07 -2.9326760524213479e-08 0.0000000000000000e+00  -4.0096874512736429e-07 -2.1112161345763408e-08 0.0000000000000000e+00  -3.9988310200922708e-07 -1.3206152793397249e-08 0.0000000000000000e+00  -4.0321297410812223e-07 -5.6023054941607171e-09 0.0000000000000000e+00  -4.1119713903232402e-07 1.7190772645413804e-09 0.0000000000000000e+00  -4.2397746791571412e-07 8.7600742109312919e-09 0.0000000000000000e+00  -4.4159195215508841e-07 1.5470584147984431e-08 0.0000000000000000e+00  -4.6394171633256355e-07 2.1716731337905089e-08 0.0000000000000000e+00  -4.9072801190817304e-07 2.7261899599685983e-08 0.0000000000000000e+00  -5.2137476256071509e-07 3.1770524047461997e-08 0.0000000000000000e+00  -5.5496175079946711e-07 3.4840983090145447e-08 0.0000000000000000e+00  -5.9019186013439183e-07 3.6065298007007214e-08 0.0000000000000000e+00  -6.2541900230187807e-07 3.5103042536929203e-08 0.0000000000000000e+00  -6.5873304909499302e-07 3.1749970739077414e-08 0.0000000000000000e+00  -6.8811229103638434e-07 2.5980951661262360e-08 0.0000000000000000e+00  -7.1157021701426865e-07 1.7957487940256152e-08 0.0000000000000000e+00  -7.2735557801176256e-07 7.9942776238282225e-09 0.0000000000000000e+00  -7.3398277192318000e-07 -3.4893339444843555e-09 0.0000000000000000e+00  -7.3047527648819647e-07 -1.6051537997527255e-08 0.0000000000000000e+00  -7.1599675913969913e-07 -2.9242997744968033e-08 0.0000000000000000e+00  -6.9059129428000927e-07 -4.2741681168859771e-08 0.0000000000000000e+00  -6.5351492989925467e-07 -5.6146736260952562e-08 0.0000000000000000e+00  -6.0650105294459424e-07 -6.9474630244468319e-08 0.0000000000000000e+00  -5.4682627156343330e-07 -8.2009179969723490e-08 0.0000000000000000e+00  -4.8149455097921847e-07 -9.4774138586281924e-08 0.0000000000000000e+00  -3.9794876844160472e-07 -1.0494342521397881e-07 0.0000000000000000e+00  -3.2431525524497392e-07 -1.1791578647663918e-07 0.0000000000000000e+00  -2.0606512070320283e-07 -1.2083112871142479e-07 0.0000000000000000e+00  -1.5798140725068386e-07 -1.3930030686035948e-07 0.0000000000000000e+00  4.7391650319377061e-08 -1.1560113201226346e-07 0.0000000000000000e+00  -5.4021912331320905e-08 -1.6532073745378583e-07 0.0000000000000000e+00  4.5482240795175988e-07 -3.8896106771426813e-08 0.0000000000000000e+00  -2.8293319953037526e-07 -2.3805805063001153e-07 0.0000000000000000e+00  1.3003086075022770e-06 2.5697924527227454e-07 0.0000000000000000e+00  -2.3859831827547638e-06 -7.3450605986241282e-07 0.0000000000000000e+00  2.8009404902172820e-06 1.3729938753249629e-06 0.0000000000000000e+00  0.0000000000000000e+00 0.0000000000000000e+00 0.0000000000000000e+00  0.0000000000000000e+00 0.0000000000000000e+00 0.0000000000000000e+00  -1.2071530224452379e-06 7.3920307638030518e-07 0.0000000000000000e+00  7.4981484055384652e-07 5.9702283525786909e-08 0.0000000000000000e+00  -2.1995751869714249e-07 1.8842090719091881e-07 0.0000000000000000e+00  -4.1593927499786889e-07 4.6696476248635520e-08 0.0000000000000000e+00  -4.5518675642442436e-07 -2.2150750558245939e-08 0.0000000000000000e+00  -5.4073493712386053e-07 -5.8223536628495492e-08 0.0000000000000000e+00  -5.5998485762369943e-07 -7.4126618487860911e-08 0.0000000000000000e+00  -5.6469693117627492e-07 -7.8339566953940284e-08 0.0000000000000000e+00  -5.6128895283187230e-07 -7.5248644397701073e-08 0.0000000000000000e+00  -5.5174100673212058e-07 -6.7796862780824389e-08 0.0000000000000000e+00  -5.4161080735107425e-07 -5.7628465343081395e-08 0.0000000000000000e+00  -5.3270857902792603e-07 -4.5816239028793950e-08 0.0000000000000000e+00  -5.2652311824987309e-07 -3.3076395645418295e-08 0.0000000000000000e+00  -5.2408135891651593e-07 -1.9862435134863351e-08 0.0000000000000000e+00  -5.2597120109310910e-07 -6.4555859332983801e-09 0.0000000000000000e+00  -5.3257580998400729e-07 6.9605437363041841e-09 0.0000000000000000e+00  -5.4410430236383935e-07 2.0226463337426931e-08 0.0000000000000000e+00  -5.6061785102693749e-07 3.3126804033424370e-08 0.0000000000000000e+00  -5.8200928953314172e-07 4.5315088376152390e-08 0.0000000000000000e+00  -6.0793856431269021e-07 5.6261618492193397e-08 0.0000000000000000e+00  -6.3774585531227453e-07 6.5246914421337132e-08 0.0000000000000000e+00  -6.7037133672884196e-07 7.1417577842032725e-08 0.0000000000000000e+00  -7.0431577391409944e-07 7.3903346862688162e-08 0.0000000000000000e+00  -7.3767970568797542e-07 7.1970552342442125e-08 0.0000000000000000e+00  -7.6827943058785383e-07 6.5169502965526160e-08 0.0000000000000000e+00  -7.9384861054463559e-07 5.3430293224669322e-08 0.0000000000000000e+00  -8.1223138651640080e-07 3.7081300480783619e-08 0.0000000000000000e+00  -8.2162473535359448e-07 1.6783330749376432e-08 0.0000000000000000e+00  -8.2061068909377221e-07 -6.5805653477359909e-09 0.0000000000000000e+00  -8.0841110447690285e-07 -3.2059373632741750e-08 0.0000000000000000e+00  -7.8445246917759742e-07 -5.8709336930200718e-08 0.0000000000000000e+00  -7.4915130929718558e-07 -8.5768879546676457e-08 0.0000000000000000e+00  -7.0208328585551413e-07 -1.1246570779098248e-07 0.0000000000000000e+00  -6.4549066625552721e-07 -1.3849457178357364e-07 0.0000000000000000e+00  -5.7689757156818696e-07 -1.6287035642667201e-07 0.0000000000000000e+00  -5.0411527081822873e-07 -1.8626049764463276e-07 0.0000000000000000e+00  -4.1460118370486336e-07 -2.0563017060426807e-07 0.0000000000000000e+00  -3.3804607459373784e-07 -2.2551127932478321e-07 0.0000000000000000e+00  -2.1940250710786380e-07 -2.3335282379830349e-07 0.0000000000000000e+00  -1.7646378735597825e-07 -2.5159335818438954e-07 0.0000000000000000e+00  1.9476178774673770e-08 -2.2669850046859223e-07 0.0000000000000000e+00  -1.0045712813400306e-07 -2.6150252616770359e-07 0.0000000000000000e+00  3.7876673928120226e-07 -1.3198637241336396e-07 0.0000000000000000e+00  -3.9107763329333494e-07 -2.8723469389385311e-07 0.0000000000000000e+00  1.0724805883347341e-06 1.7770253624914047e-07 0.0000000000000000e+00  -2.4804544577969611e-06 -5.8000587954107522e-07 0.0000000000000000e+00  2.6411211523912416e-06 1.4407162213903540e-06 0.0000000000000000e+00  0.0000000000000000e+00 0.0000000000000000e+00 0.0000000000000000e+00  0.0000000000000000e+00 0.0000000000000000e+00 0.0000000000000000e+00  -2.2991474874921136e-06 1.2438158313866824e-06 0.0000000000000000e+00  1.7607061240626621e-06 -5.9131393883463672e-09 0.0000000000000000e+00  -4.5285855670341618e-07 3.8373438509708319e-07 0.0000000000000000e+00  -7.3372660276086156e-08 1.0002988508025327e-07 0.0000000000000000e+00  -2.4848983337821668e-07 4.8872389033102713e-08 0.0000000000000000e+00  -3.3444108138596245e-07 -2.1666328164245355e-08 0.0000000000000000e+00  -3.7360597406783265e-07 -5.4846833049989163e-08 0.0000000000000000e+00  -4.1977621446805950e-07 -7.0949638210726717e-08 0.0000000000000000e+00  -4.4618653771682872e-07 -7.4726405563329085e-08 0.0000000000000000e+00  -4.6453272829865009e-07 -7.0341501277504933e-08 0.0000000000000000e+00  -4.7770836038939792e-07 -6.0689789972144079e-08 0.0000000000000000e+00  -4.8748338486488815e-07 -4.7651474423755780e-08 0.0000000000000000e+00  -4.9623228947666941e-07 -3.2526686800298080e-08 0.0000000000000000e+00  -5.0527590594065201e-07 -1.6173603057038083e-08 0.0000000000000000e+00  -5.1563836859157727e-07 8.4807593084838849e-10 0.0000000000000000e+00  -5.2805698341594992e-07 1.8168934527899888e-08 0.0000000000000000e+00  -5.4303174090967556e-07 3.5498720430042448e-08 0.0000000000000000e+00  -5.6089041671989369e-07 5.2501537249461384e-08 0.0000000000000000e+00  -5.8177295041157819e-07 6.8672123086404247e-08 0.0000000000000000e+00  -6.0557376304528003e-07 8.3239670128699725e-08 0.0000000000000000e+00  -6.3184569068493219e-07 9.5140256553698191e-08 0.0000000000000000e+00  -6.5970276334381319e-07 1.0309204078309953e-07 0.0000000000000000e+00  -6.8777072543191862e-07 1.0577736937087808e-07 0.0000000000000000e+00  -7.1423813280820943e-07 1.0209217251638163e-07 0.0000000000000000e+00  -7.3701193486000789e-07 9.1387853454191818e-08 0.0000000000000000e+00  -7.5397830409644579e-07 7.3624829917939029e-08 0.0000000000000000e+00  -7.6324983878631541e-07 4.9391490667181786e-08 0.0000000000000000e+00  -7.6343978701178157e-07 1.9784306251810030e-08 0.0000000000000000e+00  -7.5368161648867744e-07 -1.3787148270396164e-08 0.0000000000000000e+00  -7.3385397597962620e-07 -4.9841948767551644e-08 0.0000000000000000e+00  -7.0407286542273339e-07 -8.6965648150643347e-08 0.0000000000000000e+00  -6.6546279540061170e-07 -1.2401939418828666e-07 0.0000000000000000e+00  -6.1822696392687262e-07 -1.5993976739598252e-07 0.0000000000000000e+00  -5.6526628316807950e-07 -1.9420163024596229e-07 0.0000000000000000e+00  -5.0457859972244942e-07 -2.2562053058995079e-07 0.0000000000000000e+00  -4.4466541336940383e-07 -2.5465261374117201e-07 0.0000000000000000e+00  -3.7325401899623955e-07 -2.7803202082875152e-07 0.0000000000000000e+00  -3.2088535913696630e-07 -2.9984409725996765e-07 0.0000000000000000e+00  -2.3255487063032119e-07 -3.0749947488801861e-07 0.0000000000000000e+00  -2.2641382273125852e-07 -3.2200579235635215e-07 0.0000000000000000e+00  -7.5165162572904555e-08 -2.9250571432398177e-07 0.0000000000000000e+00  -2.4098752014442361e-07 -3.1532676003738095e-07 0.0000000000000000e+00  1.7523680448679809e-07 -1.8667744813643190e-07 0.0000000000000000e+00  -6.2664567832101549e-07 -3.1735242124314680e-07 0.0000000000000000e+00  7.5014633901774141e-07 9.9429583436346065e-08 0.0000000000000000e+00  -2.7199324384740722e-06 -5.3720796788201129e-07 0.0000000000000000e+00  2.2277119282251735e-06 1.2327484356817369e-06 0.0000000000000000e+00  0.0000000000000000e+00 0.0000000000000000e+00 0.0000000000000000e+00  0.0000000000000000e+00 0.0000000000000000e+00 0.0000000000000000e+00  -2.5463786572111639e-06 1.3051678035321944e-06 0.0000000000000000e+00  2.4020993059294782e-06 -1.6007604444927683e-08 0.0000000000000000e+00  -7.3346745674717057e-07 4.8731656930791071e-07 0.0000000000000000e+00  2.4138928925059643e-07 1.3785520164404193e-07 0.0000000000000000e+00  -2.2067003672183145e-07 1.4442216512156096e-07 0.0000000000000000e+00  -1.8494640488213270e-07 3.9642409119259916e-08 0.0000000000000000e+00  -2.5562201738252645e-07 1.7388662774344533e-10 0.0000000000000000e+00  -3.1020453262156828e-07 -3.1651588082227436e-08 0.0000000000000000e+00  -3.4632177668646692e-07 -4.5737536204001850e-08 0.0000000000000000e+00  -3.7913194791607122e-07 -4.9182710529673337e-08 0.0000000000000000e+00  -4.0397727241246222e-07 -4.4638269056195556e-08 0.0000000000000000e+00  -4.2446544814764954e-07 -3.4534084253884240e-08 0.0000000000000000e+00  -4.4224647419824033e-07 -2.0693454705746764e-08 0.0000000000000000e+00  -4.5847905212259851e-07 -4.3899237478839302e-09 0.0000000000000000e+00  -4.7427953443349588e-07 1.3469724334829155e-08 0.0000000000000000e+00  -4.9039903625612275e-07 3.2268001908175596e-08 0.0000000000000000e+00  -5.0742513546739989e-07 5.1536390739477250e-08 0.0000000000000000e+00  -5.2580593073140917e-07 7.0795084066323269e-08 0.0000000000000000e+00  -5.4584128638488190e-07 8.9372882101249671e-08 0.0000000000000000e+00  -5.6761930078306131e-07 1.0624806107394452e-07 0.0000000000000000e+00  -5.9088591007569008e-07 1.1998034818822569e-07 0.0000000000000000e+00  -6.1490192821622828e-07 1.2879948276107066e-07 0.0000000000000000e+00  -6.3835756487958983e-07 1.3087025196154854e-07 0.0000000000000000e+00  -6.5942820054884284e-07 1.2467441434204076e-07 0.0000000000000000e+00  -6.7598687532688674e-07 1.0938253719149620e-07 0.0000000000000000e+00  -6.8596082929890954e-07 8.5077816753357784e-08 0.0000000000000000e+00  -6.8766424537163210e-07 5.2756135083551323e-08 0.0000000000000000e+00  -6.8012095200964351e-07 1.4110975688700604e-08 0.0000000000000000e+00  -6.6304870137733084e-07 -2.8790247166272198e-08 0.0000000000000000e+00  -6.3703624575673307e-07 -7.3862171071001400e-08 0.0000000000000000e+00  -6.0289456743286969e-07 -1.1920877115401954e-07 0.0000000000000000e+00  -5.6244512096061879e-07 -1.6334861563319003e-07 0.0000000000000000e+00  -5.1635385619028971e-07 -2.0499416183486798e-07 0.0000000000000000e+00  -4.6809027115950587e-07 -2.4346015293602377e-07 0.0000000000000000e+00  -4.1563442334212690e-07 -2.7744547504032479e-07 0.0000000000000000e+00  -3.6820491632370928e-07 -3.0721872293172718e-07 0.0000000000000000e+00  -3.1247721660702755e-07 -3.2944121053383713e-07 0.0000000000000000e+00  -2.8081486763780809e-07 -3.4773953625883493e-07 0.0000000000000000e+00  -2.1414972357064607e-07 -3.5002689609926160e-07 0.0000000000000000e+00  -2.3648164527724838e-07 -3.5586159627883555e-07 0.0000000000000000e+00  -1.0728785817975005e-07 -3.1852171961853364e-07 0.0000000000000000e+00  -3.0720302176216935e-07 -3.2781708622371119e-07 0.0000000000000000e+00  1.0083085889968563e-07 -2.0079917181106571e-07 0.0000000000000000e+00  -7.3330246159946159e-07 -3.1151032179898798e-07 0.0000000000000000e+00  6.7168144396537974e-07 6.0818528144525174e-08 0.0000000000000000e+00  -2.7933745608352815e-06 -4.9387111197658872e-07 0.0000000000000000e+00  2.2046970457380402e-06 1.0693514147665377e-06 0.0000000000000000e+00  0.0000000000000000e+00 0.0000000000000000e+00 0.0000000000000000e+00  0.0000000000000000e+00 0.0000000000000000e+00 0.0000000000000000e+00  -2.4884007217184565e-06 1.2089908615986354e-06 0.0000000000000000e+00  2.6629301925669316e-06 1.3542478495606505e-08 0.0000000000000000e+00  -8.5145936683065726e-07 5.0259205670245887e-07 0.0000000000000000e+00  4.8820366939911209e-07 1.6884449952047979e-07 0.0000000000000000e+00  -2.3041507091364209e-07 2.1788265439555997e-07 0.0000000000000000e+00  -2.3749549117596403e-08 9.4210511985416990e-08 0.0000000000000000e+00  -1.5838726684776411e-07 6.0085855101508352e-08 0.0000000000000000e+00  -1.8932828978202553e-07 1.4964826193537128e-08 0.0000000000000000e+00  -2.3540380442151468e-07 -5.8848681120531477e-09 0.0000000000000000e+00  -2.7563573345688680e-07 -1.7034160614770723e-08 0.0000000000000000e+00  -3.0799712599750391e-07 -1.7923601652712274e-08 0.0000000000000000e+00  -3.3688073418522218e-07 -1.1824096728848888e-08 0.0000000000000000e+00  -3.6194231215286556e-07 -6.1648241668925029e-10 0.0000000000000000e+00  -3.8452763698282685e-07 1.4127180906160619e-08 0.0000000000000000e+00  -4.0549358175758890e-07 3.1241688056148434e-08 0.0000000000000000e+00  -4.2548964411513408e-07 4.9922180564653643e-08 0.0000000000000000e+00  -4.4510962608197676e-07 6.9574736297000173e-08 0.0000000000000000e+00  -4.6485462154387098e-07 8.9643674381210408e-08 0.0000000000000000e+00  -4.8516436009648417e-07 1.0936381425963540e-07 0.0000000000000000e+00  -5.0632910549939987e-07 1.2751197921260608e-07 0.0000000000000000e+00  -5.2830578807907340e-07 1.4226336869581943e-07 0.0000000000000000e+00  -5.5049261602127923e-07 1.5128005338812680e-07 0.0000000000000000e+00  -5.7157228730777579e-07 1.5209024124772779e-07 0.0000000000000000e+00  -5.8956562106272284e-07 1.4267139860042876e-07 0.0000000000000000e+00  -6.0213669461340299e-07 1.2201969248077743e-07 0.0000000000000000e+00  -6.0710807635888505e-07 9.0467400044376579e-08 0.0000000000000000e+00  -6.0293429513176664e-07 4.9628516158099188e-08 0.0000000000000000e+00  -5.8908414206953354e-07 2.0153511334543111e-09 0.0000000000000000e+00  -5.6595962175212166e-07 -4.9484979008178188e-08 0.0000000000000000e+00  -5.3496124753201334e-07 -1.0212159535085671e-07 0.0000000000000000e+00  -4.9765999796547490e-07 -1.5355686642571259e-07 0.0000000000000000e+00  -4.5654739621228872e-07 -2.0208384478705620e-07 0.0000000000000000e+00  -4.1268206107616491e-07 -2.4634685538972945e-07 0.0000000000000000e+00  -3.6988931399573713e-07 -2.8567516402562379