<?xml version="1.0"?>
<VTKFile type="UnstructuredGrid"  version="0.1"  >
<UnstructuredGrid>
<Piece  NumberOfPoints="1617" NumberOfCells="3072">
<Points>
<DataArray  type="Float64"  NumberOfComponents="3"  format="ascii">0 0 0  0.03125 0 0  0.0625 0 0  0.09375 0 0  0.125 0 0  0.15625 0 0  0.1875 0 0  0.21875 0 0  0.25 0 0  0.28125 0 0  0.3125 0 0  0.34375 0 0  0.375 0 0  0.40625 0 0  0.4375 0 0  0.46875 0 0  0.5 0 0  0.53125 0 0  0.5625 0 0  0.59375 0 0  0.625 0 0  0.65625 0 0  0.6875 0 0  0.71875 0 0  0.75 0 0  0.78125 0 0  0.8125 0 0  0.84375 0 0  0.875 0 0  0.90625 0 0  0.9375 0 0  0.96875 0 0  1 0 0  1.03125 0 0  1.0625 0 0  1.09375 0 0  1.125 0 0  1.15625 0 0  1.1875 0 0  1.21875 0 0  1.25 0 0  1.28125 0 0  1.3125 0 0  1.34375 0 0  1.375 0 0  1.40625 0 0  1.4375 0 0  1.46875 0 0  1.5 0 0  0 0.03125 0  0.03125 0.03125 0  0.0625 0.03125 0  0.09375 0.03125 0  0.125 0.03125 0  0.15625 0.03125 0  0.1875 0.03125 0  0.21875 0.03125 0  0.25 0.03125 0  0.28125 0.03125 0  0.3125 0.03125 0  0.34375 0.03125 0  0.375 0.03125 0  0.40625 0.03125 0  0.4375 0.03125 0  0.46875 0.03125 0  0.5 0.03125 0  0.53125 0.03125 0  0.5625 0.03125 0  0.59375 0.03125 0  0.625 0.03125 0  0.65625 0.03125 0  0.6875 0.03125 0  0.71875 0.03125 0  0.75 0.03125 0  0.78125 0.03125 0  0.8125 0.03125 0  0.84375 0.03125 0  0.875 0.03125 0  0.90625 0.03125 0  0.9375 0.03125 0  0.96875 0.03125 0  1 0.03125 0  1.03125 0.03125 0  1.0625 0.03125 0  1.09375 0.03125 0  1.125 0.03125 0  1.15625 0.03125 0  1.1875 0.03125 0  1.21875 0.03125 0  1.25 0.03125 0  1.28125 0.03125 0  1.3125 0.03125 0  1.34375 0.03125 0  1.375 0.03125 0  1.40625 0.03125 0  1.4375 0.03125 0  1.46875 0.03125 0  1.5 0.03125 0  0 0.0625 0  0.03125 0.0625 0  0.0625 0.0625 0  0.09375 0.0625 0  0.125 0.0625 0  0.15625 0.0625 0  0.1875 0.0625 0  0.21875 0.0625 0  0.25 0.0625 0  0.28125 0.0625 0  0.3125 0.0625 0  0.34375 0.0625 0  0.375 0.0625 0  0.40625 0.0625 0  0.4375 0.0625 0  0.46875 0.0625 0  0.5 0.0625 0  0.53125 0.0625 0  0.5625 0.0625 0  0.59375 0.0625 0  0.625 0.0625 0  0.65625 0.0625 0  0.6875 0.0625 0  0.71875 0.0625 0  0.75 0.0625 0  0.78125 0.0625 0  0.8125 0.0625 0  0.84375 0.0625 0  0.875 0.0625 0  0.90625 0.0625 0  0.9375 0.0625 0  0.96875 0.0625 0  1 0.0625 0  1.03125 0.0625 0  1.0625 0.0625 0  1.09375 0.0625 0  1.125 0.0625 0  1.15625 0.0625 0  1.1875 0.0625 0  1.21875 0.0625 0  1.25 0.0625 0  1.28125 0.0625 0  1.3125 0.0625 0  1.34375 0.0625 0  1.375 0.0625 0  1.40625 0.0625 0  1.4375 0.0625 0  1.46875 0.0625 0  1.5 0.0625 0  0 0.09375 0  0.03125 0.09375 0  0.0625 0.09375 0  0.09375 0.09375 0  0.125 0.09375 0  0.15625 0.09375 0  0.1875 0.09375 0  0.21875 0.09375 0  0.25 0.09375 0  0.28125 0.09375 0  0.3125 0.09375 0  0.34375 0.09375 0  0.375 0.09375 0  0.40625 0.09375 0  0.4375 0.09375 0  0.46875 0.09375 0  0.5 0.09375 0  0.53125 0.09375 0  0.5625 0.09375 0  0.59375 0.09375 0  0.625 0.09375 0  0.65625 0.09375 0  0.6875 0.09375 0  0.71875 0.09375 0  0.75 0.09375 0  0.78125 0.09375 0  0.8125 0.09375 0  0.84375 0.09375 0  0.875 0.09375 0  0.90625 0.09375 0  0.9375 0.09375 0  0.96875 0.09375 0  1 0.09375 0  1.03125 0.09375 0  1.0625 0.09375 0  1.09375 0.09375 0  1.125 0.09375 0  1.15625 0.09375 0  1.1875 0.09375 0  1.21875 0.09375 0  1.25 0.09375 0  1.28125 0.09375 0  1.3125 0.09375 0  1.34375 0.09375 0  1.375 0.09375 0  1.40625 0.09375 0  1.4375 0.09375 0  1.46875 0.09375 0  1.5 0.09375 0  0 0.125 0  0.03125 0.125 0  0.0625 0.125 0  0.09375 0.125 0  0.125 0.125 0  0.15625 0.125 0  0.1875 0.125 0  0.21875 0.125 0  0.25 0.125 0  0.28125 0.125 0  0.3125 0.125 0  0.34375 0.125 0  0.375 0.125 0  0.40625 0.125 0  0.4375 0.125 0  0.46875 0.125 0  0.5 0.125 0  0.53125 0.125 0  0.5625 0.125 0  0.59375 0.125 0  0.625 0.125 0  0.65625 0.125 0  0.6875 0.125 0  0.71875 0.125 0  0.75 0.125 0  0.78125 0.125 0  0.8125 0.125 0  0.84375 0.125 0  0.875 0.125 0  0.90625 0.125 0  0.9375 0.125 0  0.96875 0.125 0  1 0.125 0  1.03125 0.125 0  1.0625 0.125 0  1.09375 0.125 0  1.125 0.125 0  1.15625 0.125 0  1.1875 0.125 0  1.21875 0.125 0  1.25 0.125 0  1.28125 0.125 0  1.3125 0.125 0  1.34375 0.125 0  1.375 0.125 0  1.40625 0.125 0  1.4375 0.125 0  1.46875 0.125 0  1.5 0.125 0  0 0.15625 0  0.03125 0.15625 0  0.0625 0.15625 0  0.09375 0.15625 0  0.125 0.15625 0  0.15625 0.15625 0  0.1875 0.15625 0  0.21875 0.15625 0  0.25 0.15625 0  0.28125 0.15625 0  0.3125 0.15625 0  0.34375 0.15625 0  0.375 0.15625 0  0.40625 0.15625 0  0.4375 0.15625 0  0.46875 0.15625 0  0.5 0.15625 0  0.53125 0.15625 0  0.5625 0.15625 0  0.59375 0.15625 0  0.625 0.15625 0  0.65625 0.15625 0  0.6875 0.15625 0  0.71875 0.15625 0  0.75 0.15625 0  0.78125 0.15625 0  0.8125 0.15625 0  0.84375 0.15625 0  0.875 0.15625 0  0.90625 0.15625 0  0.9375 0.15625 0  0.96875 0.15625 0  1 0.15625 0  1.03125 0.15625 0  1.0625 0.15625 0  1.09375 0.15625 0  1.125 0.15625 0  1.15625 0.15625 0  1.1875 0.15625 0  1.21875 0.15625 0  1.25 0.15625 0  1.28125 0.15625 0  1.3125 0.15625 0  1.34375 0.15625 0  1.375 0.15625 0  1.40625 0.15625 0  1.4375 0.15625 0  1.46875 0.15625 0  1.5 0.15625 0  0 0.1875 0  0.03125 0.1875 0  0.0625 0.1875 0  0.09375 0.1875 0  0.125 0.1875 0  0.15625 0.1875 0  0.1875 0.1875 0  0.21875 0.1875 0  0.25 0.1875 0  0.28125 0.1875 0  0.3125 0.1875 0  0.34375 0.1875 0  0.375 0.1875 0  0.40625 0.1875 0  0.4375 0.1875 0  0.46875 0.1875 0  0.5 0.1875 0  0.53125 0.1875 0  0.5625 0.1875 0  0.59375 0.1875 0  0.625 0.1875 0  0.65625 0.1875 0  0.6875 0.1875 0  0.71875 0.1875 0  0.75 0.1875 0  0.78125 0.1875 0  0.8125 0.1875 0  0.84375 0.1875 0  0.875 0.1875 0  0.90625 0.1875 0  0.9375 0.1875 0  0.96875 0.1875 0  1 0.1875 0  1.03125 0.1875 0  1.0625 0.1875 0  1.09375 0.1875 0  1.125 0.1875 0  1.15625 0.1875 0  1.1875 0.1875 0  1.21875 0.1875 0  1.25 0.1875 0  1.28125 0.1875 0  1.3125 0.1875 0  1.34375 0.1875 0  1.375 0.1875 0  1.40625 0.1875 0  1.4375 0.1875 0  1.46875 0.1875 0  1.5 0.1875 0  0 0.21875 0  0.03125 0.21875 0  0.0625 0.21875 0  0.09375 0.21875 0  0.125 0.21875 0  0.15625 0.21875 0  0.1875 0.21875 0  0.21875 0.21875 0  0.25 0.21875 0  0.28125 0.21875 0  0.3125 0.21875 0  0.34375 0.21875 0  0.375 0.21875 0  0.40625 0.21875 0  0.4375 0.21875 0  0.46875 0.21875 0  0.5 0.21875 0  0.53125 0.21875 0  0.5625 0.21875 0  0.59375 0.21875 0  0.625 0.21875 0  0.65625 0.21875 0  0.6875 0.21875 0  0.71875 0.21875 0  0.75 0.21875 0  0.78125 0.21875 0  0.8125 0.21875 0  0.84375 0.21875 0  0.875 0.21875 0  0.90625 0.21875 0  0.9375 0.21875 0  0.96875 0.21875 0  1 0.21875 0  1.03125 0.21875 0  1.0625 0.21875 0  1.09375 0.21875 0  1.125 0.21875 0  1.15625 0.21875 0  1.1875 0.21875 0  1.21875 0.21875 0  1.25 0.21875 0  1.28125 0.21875 0  1.3125 0.21875 0  1.34375 0.21875 0  1.375 0.21875 0  1.40625 0.21875 0  1.4375 0.21875 0  1.46875 0.21875 0  1.5 0.21875 0  0 0.25 0  0.03125 0.25 0  0.0625 0.25 0  0.09375 0.25 0  0.125 0.25 0  0.15625 0.25 0  0.1875 0.25 0  0.21875 0.25 0  0.25 0.25 0  0.28125 0.25 0  0.3125 0.25 0  0.34375 0.25 0  0.375 0.25 0  0.40625 0.25 0  0.4375 0.25 0  0.46875 0.25 0  0.5 0.25 0  0.53125 0.25 0  0.5625 0.25 0  0.59375 0.25 0  0.625 0.25 0  0.65625 0.25 0  0.6875 0.25 0  0.71875 0.25 0  0.75 0.25 0  0.78125 0.25 0  0.8125 0.25 0  0.84375 0.25 0  0.875 0.25 0  0.90625 0.25 0  0.9375 0.25 0  0.96875 0.25 0  1 0.25 0  1.03125 0.25 0  1.0625 0.25 0  1.09375 0.25 0  1.125 0.25 0  1.15625 0.25 0  1.1875 0.25 0  1.21875 0.25 0  1.25 0.25 0  1.28125 0.25 0  1.3125 0.25 0  1.34375 0.25 0  1.375 0.25 0  1.40625 0.25 0  1.4375 0.25 0  1.46875 0.25 0  1.5 0.25 0  0 0.28125 0  0.03125 0.28125 0  0.0625 0.28125 0  0.09375 0.28125 0  0.125 0.28125 0  0.15625 0.28125 0  0.1875 0.28125 0  0.21875 0.28125 0  0.25 0.28125 0  0.28125 0.28125 0  0.3125 0.28125 0  0.34375 0.28125 0  0.375 0.28125 0  0.40625 0.28125 0  0.4375 0.28125 0  0.46875 0.28125 0  0.5 0.28125 0  0.53125 0.28125 0  0.5625 0.28125 0  0.59375 0.28125 0  0.625 0.28125 0  0.65625 0.28125 0  0.6875 0.28125 0  0.71875 0.28125 0  0.75 0.28125 0  0.78125 0.28125 0  0.8125 0.28125 0  0.84375 0.28125 0  0.875 0.28125 0  0.90625 0.28125 0  0.9375 0.28125 0  0.96875 0.28125 0  1 0.28125 0  1.03125 0.28125 0  1.0625 0.28125 0  1.09375 0.28125 0  1.125 0.28125 0  1.15625 0.28125 0  1.1875 0.28125 0  1.21875 0.28125 0  1.25 0.28125 0  1.28125 0.28125 0  1.3125 0.28125 0  1.34375 0.28125 0  1.375 0.28125 0  1.40625 0.28125 0  1.4375 0.28125 0  1.46875 0.28125 0  1.5 0.28125 0  0 0.3125 0  0.03125 0.3125 0  0.0625 0.3125 0  0.09375 0.3125 0  0.125 0.3125 0  0.15625 0.3125 0  0.1875 0.3125 0  0.21875 0.3125 0  0.25 0.3125 0  0.28125 0.3125 0  0.3125 0.3125 0  0.34375 0.3125 0  0.375 0.3125 0  0.40625 0.3125 0  0.4375 0.3125 0  0.46875 0.3125 0  0.5 0.3125 0  0.53125 0.3125 0  0.5625 0.3125 0  0.59375 0.3125 0  0.625 0.3125 0  0.65625 0.3125 0  0.6875 0.3125 0  0.71875 0.3125 0  0.75 0.3125 0  0.78125 0.3125 0  0.8125 0.3125 0  0.84375 0.3125 0  0.875 0.3125 0  0.90625 0.3125 0  0.9375 0.3125 0  0.96875 0.3125 0  1 0.3125 0  1.03125 0.3125 0  1.0625 0.3125 0  1.09375 0.3125 0  1.125 0.3125 0  1.15625 0.3125 0  1.1875 0.3125 0  1.21875 0.3125 0  1.25 0.3125 0  1.28125 0.3125 0  1.3125 0.3125 0  1.34375 0.3125 0  1.375 0.3125 0  1.40625 0.3125 0  1.4375 0.3125 0  1.46875 0.3125 0  1.5 0.3125 0  0 0.34375 0  0.03125 0.34375 0  0.0625 0.34375 0  0.09375 0.34375 0  0.125 0.34375 0  0.15625 0.34375 0  0.1875 0.34375 0  0.21875 0.34375 0  0.25 0.34375 0  0.28125 0.34375 0  0.3125 0.34375 0  0.34375 0.34375 0  0.375 0.34375 0  0.40625 0.34375 0  0.4375 0.34375 0  0.46875 0.34375 0  0.5 0.34375 0  0.53125 0.34375 0  0.5625 0.34375 0  0.59375 0.34375 0  0.625 0.34375 0  0.65625 0.34375 0  0.6875 0.34375 0  0.71875 0.34375 0  0.75 0.34375 0  0.78125 0.34375 0  0.8125 0.34375 0  0.84375 0.34375 0  0.875 0.34375 0  0.90625 0.34375 0  0.9375 0.34375 0  0.96875 0.34375 0  1 0.34375 0  1.03125 0.34375 0  1.0625 0.34375 0  1.09375 0.34375 0  1.125 0.34375 0  1.15625 0.34375 0  1.1875 0.34375 0  1.21875 0.34375 0  1.25 0.34375 0  1.28125 0.34375 0  1.3125 0.34375 0  1.34375 0.34375 0  1.375 0.34375 0  1
[...]
<PointData  Vectors="f_17"> 
<DataArray  type="Float64"  Name="f_17"  NumberOfComponents="3" format="ascii">0.0000000000000000e+00 0.0000000000000000e+00 0.0000000000000000e+00  0.0000000000000000e+00 0.0000000000000000e+00 0.0000000000000000e+00  0.0000000000000000e+00 0.0000000000000000e+00 0.0000000000000000e+00  0.0000000000000000e+00 0.0000000000000000e+00 0.0000000000000000e+00  0.0000000000000000e+00 0.0000000000000000e+00 0.0000000000000000e+00  0.0000000000000000e+00 0.0000000000000000e+00 0.0000000000000000e+00  0.0000000000000000e+00 0.0000000000000000e+00 0.0000000000000000e+00  0.0000000000000000e+00 0.0000000000000000e+00 0.0000000000000000e+00  0.0000000000000000e+00 0.0000000000000000e+00 0.0000000000000000e+00  0.0000000000000000e+00 0.0000000000000000e+00 0.0000000000000000e+00  0.0000000000000000e+00 0.0000000000000000e+00 0.0000000000000000e+00  0.0000000000000000e+00 0.0000000000000000e+00 0.0000000000000000e+00  0.0000000000000000e+00 0.0000000000000000e+00 0.0000000000000000e+00  0.0000000000000000e+00 0.0000000000000000e+00 0.0000000000000000e+00  0.0000000000000000e+00 0.0000000000000000e+00 0.0000000000000000e+00  0.0000000000000000e+00 0.0000000000000000e+00 0.0000000000000000e+00  0.0000000000000000e+00 0.0000000000000000e+00 0.0000000000000000e+00  0.0000000000000000e+00 0.0000000000000000e+00 0.0000000000000000e+00  0.0000000000000000e+00 0.0000000000000000e+00 0.0000000000000000e+00  0.0000000000000000e+00 0.0000000000000000e+00 0.0000000000000000e+00  0.0000000000000000e+00 0.0000000000000000e+00 0.0000000000000000e+00  0.0000000000000000e+00 0.0000000000000000e+00 0.0000000000000000e+00  0.0000000000000000e+00 0.0000000000000000e+00 0.0000000000000000e+00  0.0000000000000000e+00 0.0000000000000000e+00 0.0000000000000000e+00  0.0000000000000000e+00 0.0000000000000000e+00 0.0000000000000000e+00  0.0000000000000000e+00 0.0000000000000000e+00 0.0000000000000000e+00  0.0000000000000000e+00 0.0000000000000000e+00 0.0000000000000000e+00  0.0000000000000000e+00 0.0000000000000000e+00 0.0000000000000000e+00  0.0000000000000000e+00 0.0000000000000000e+00 0.0000000000000000e+00  0.0000000000000000e+00 0.0000000000000000e+00 0.0000000000000000e+00  0.0000000000000000e+00 0.0000000000000000e+00 0.0000000000000000e+00  0.0000000000000000e+00 0.0000000000000000e+00 0.0000000000000000e+00  0.0000000000000000e+00 0.0000000000000000e+00 0.0000000000000000e+00  0.0000000000000000e+00 0.0000000000000000e+00 0.0000000000000000e+00  0.0000000000000000e+00 0.0000000000000000e+00 0.0000000000000000e+00  0.0000000000000000e+00 0.0000000000000000e+00 0.0000000000000000e+00  0.0000000000000000e+00 0.0000000000000000e+00 0.0000000000000000e+00  0.0000000000000000e+00 0.0000000000000000e+00 0.0000000000000000e+00  0.0000000000000000e+00 0.0000000000000000e+00 0.0000000000000000e+00  0.0000000000000000e+00 0.0000000000000000e+00 0.0000000000000000e+00  0.0000000000000000e+00 0.0000000000000000e+00 0.0000000000000000e+00  0.0000000000000000e+00 0.0000000000000000e+00 0.0000000000000000e+00  0.0000000000000000e+00 0.0000000000000000e+00 0.0000000000000000e+00  0.0000000000000000e+00 0.0000000000000000e+00 0.0000000000000000e+00  0.0000000000000000e+00 0.0000000000000000e+00 0.0000000000000000e+00  0.0000000000000000e+00 0.0000000000000000e+00 0.0000000000000000e+00  0.0000000000000000e+00 0.0000000000000000e+00 0.0000000000000000e+00  0.0000000000000000e+00 0.0000000000000000e+00 0.0000000000000000e+00  0.0000000000000000e+00 0.0000000000000000e+00 0.0000000000000000e+00  0.0000000000000000e+00 0.0000000000000000e+00 0.0000000000000000e+00  9.8151603820289788e-09 9.7522135499286437e-09 0.0000000000000000e+00  -1.2561095447562125e-07 1.0784827912712022e-07 0.0000000000000000e+00  -6.3427802808491493e-08 -1.6409421232386229e-08 0.0000000000000000e+00  -2.6333083628560514e-07 -5.1971610152994590e-08 0.0000000000000000e+00  -2.5335692578711807e-07 -7.8635700136560174e-08 0.0000000000000000e+00  -2.4515201644761345e-07 -8.2856949221884978e-08 0.0000000000000000e+00  -2.4008566178077195e-07 -7.4999595866298867e-08 0.0000000000000000e+00  -2.2416708083402395e-07 -6.4889479966678267e-08 0.0000000000000000e+00  -2.0944393640732437e-07 -5.3935344922750046e-08 0.0000000000000000e+00  -1.9611066943214545e-07 -4.3192279051121271e-08 0.0000000000000000e+00  -1.8544073447036040e-07 -3.2997797618175094e-08 0.0000000000000000e+00  -1.7867064417483181e-07 -2.3380874337429288e-08 0.0000000000000000e+00  -1.7625705796311528e-07 -1.4340944425483036e-08 0.0000000000000000e+00  -1.7855780829507943e-07 -5.8305124715793492e-09 0.0000000000000000e+00  -1.8577999838870557e-07 2.2212384930982734e-09 0.0000000000000000e+00  -1.9803902820016168e-07 9.8870349548382123e-09 0.0000000000000000e+00  -2.1540108683922204e-07 1.7215723381888528e-08 0.0000000000000000e+00  -2.3787166432120482e-07 2.4200337778240061e-08 0.0000000000000000e+00  -2.6535853743128919e-07 3.0747701950248318e-08 0.0000000000000000e+00  -2.9760594555025318e-07 3.6659458100175077e-08 0.0000000000000000e+00  -3.3411401431415591e-07 4.1634864972219247e-08 0.0000000000000000e+00  -3.7406739216862391e-07 4.5301908468555963e-08 0.0000000000000000e+00  -4.1629603769401222e-07 4.7274725532780402e-08 0.0000000000000000e+00  -4.5929429681459873e-07 4.7225193240239514e-08 0.0000000000000000e+00  -5.0129538523022722e-07 4.4949649167437045e-08 0.0000000000000000e+00  -5.4041171658280926e-07 4.0410838170905221e-08 0.0000000000000000e+00  -5.7477093825858023e-07 3.3745497223603369e-08 0.0000000000000000e+00  -6.0270395805743934e-07 2.5232408583446807e-08 0.0000000000000000e+00  -6.2277077742925880e-07 1.5245837784024033e-08 0.0000000000000000e+00  -6.3399155761901121e-07 4.1768419346602888e-09 0.0000000000000000e+00  -6.3548944455930658e-07 -7.5804848108683357e-09 0.0000000000000000e+00  -6.2720197056070506e-07 -1.9758866834081905e-08 0.0000000000000000e+00  -6.0827034078000950e-07 -3.2017685798035120e-08 0.0000000000000000e+00  -5.8019260933036513e-07 -4.4426763247225755e-08 0.0000000000000000e+00  -5.4011046315717392e-07 -5.6347940865359124e-08 0.0000000000000000e+00  -4.9455016419246892e-07 -6.8856214777620093e-08 0.0000000000000000e+00  -4.3096796174854632e-07 -7.9278625755781606e-08 0.0000000000000000e+00  -3.7631126913720712e-07 -9.3044414658226209e-08 0.0000000000000000e+00  -2.7677838066653443e-07 -9.7710699909826438e-08 0.0000000000000000e+00  -2.4371981684264668e-07 -1.1874128817162393e-07 0.0000000000000000e+00  -5.3214679678495113e-08 -9.9676000286130852e-08 0.0000000000000000e+00  -1.5958436928016684e-07 -1.5492227883597159e-07 0.0000000000000000e+00  3.3873507223121209e-07 -3.8499041215406589e-08 0.0000000000000000e+00  -3.8494966176525213e-07 -2.4563354855295519e-07 0.0000000000000000e+00  1.1482192917853724e-06 2.2901111312966584e-07 0.0000000000000000e+00  -2.4262173640994167e-06 -7.5426217154828635e-07 0.0000000000000000e+00  2.6853155968016525e-06 1.3710688542034181e-06 0.0000000000000000e+00  0.0000000000000000e+00 0.0000000000000000e+00 0.0000000000000000e+00  0.0000000000000000e+00 0.0000000000000000e+00 0.0000000000000000e+00  -1.2612863311975480e-06 6.7205237525007136e-07 0.0000000000000000e+00  7.7840577243596914e-07 -3.2397491001114215e-08 0.0000000000000000e+00  -1.0894941395605479e-07 1.0109352417585193e-07 0.0000000000000000e+00  -2.8204168234054464e-07 -1.7091689411296282e-08 0.0000000000000000e+00  -2.9785614771828833e-07 -6.8537366570723168e-08 0.0000000000000000e+00  -3.5676086543379473e-07 -8.9807659425437809e-08 0.0000000000000000e+00  -3.5703762859805137e-07 -9.4183103358941746e-08 0.0000000000000000e+00  -3.4793199336911366e-07 -8.9603159535244612e-08 0.0000000000000000e+00  -3.3506306090762150e-07 -7.9923946581735277e-08 0.0000000000000000e+00  -3.1960557271324972e-07 -6.7588294804429894e-08 0.0000000000000000e+00  -3.0608749809944912e-07 -5.3800054264918821e-08 0.0000000000000000e+00  -2.9569867315534260e-07 -3.9305792172713983e-08 0.0000000000000000e+00  -2.8941205091882806e-07 -2.4578035642478065e-08 0.0000000000000000e+00  -2.8786981164501707e-07 -9.8873263002403184e-09 0.0000000000000000e+00  -2.9138581882724852e-07 4.6281213072755473e-09 0.0000000000000000e+00  -3.0014545571269276e-07 1.8904230461283772e-08 0.0000000000000000e+00  -3.1422925124061687e-07 3.2886765330233976e-08 0.0000000000000000e+00  -3.3363002401551022e-07 4.6457165340584583e-08 0.0000000000000000e+00  -3.5822743754606713e-07 5.9360008548961616e-08 0.0000000000000000e+00  -3.8772020767838831e-07 7.1150894590060117e-08 0.0000000000000000e+00  -4.2153531913769761e-07 8.1187538056970646e-08 0.0000000000000000e+00  -4.5874208537429087e-07 8.8681344207973961e-08 0.0000000000000000e+00  -4.9800414138518455e-07 9.2809053767428395e-08 0.0000000000000000e+00  -5.3760625582046171e-07 9.2860827169599800e-08 0.0000000000000000e+00  -5.7555536396367353e-07 8.8383513453756224e-08 0.0000000000000000e+00  -6.0976443001569161e-07 7.9274706902203094e-08 0.0000000000000000e+00  -6.3822988134767056e-07 6.5802283725084836e-08 0.0000000000000000e+00  -6.5925612258448413e-07 4.8542629055256827e-08 0.0000000000000000e+00  -6.7148149698031364e-07 2.8276141015299731e-08 0.0000000000000000e+00  -6.7411466245703480e-07 5.8404462652599997e-09 0.0000000000000000e+00  -6.6651808173399930e-07 -1.7940169741512019e-08 0.0000000000000000e+00  -6.4895004012270859e-07 -4.2422585913369403e-08 0.0000000000000000e+00  -6.2082218812353591e-07 -6.6957338358468622e-08 0.0000000000000000e+00  -5.8403739639705671e-07 -9.1355841566628705e-08 0.0000000000000000e+00  -5.3594035429375651e-07 -1.1477735585422250e-07 0.0000000000000000e+00  -4.8365555518779478e-07 -1.3801734423796426e-07 0.0000000000000000e+00  -4.1471108668153712e-07 -1.5828150326692857e-07 0.0000000000000000e+00  -3.5710491321349732e-07 -1.8025149727704523e-07 0.0000000000000000e+00  -2.5705144632016458e-07 -1.9191333140438080e-07 0.0000000000000000e+00  -2.2739038261141049e-07 -2.1575085579370827e-07 0.0000000000000000e+00  -4.5546109351262652e-08 -1.9956335694364573e-07 0.0000000000000000e+00  -1.6556925049663781e-07 -2.4520817395757599e-07 0.0000000000000000e+00  3.0290265662197623e-07 -1.3200652867960379e-07 0.0000000000000000e+00  -4.4594502699057126e-07 -3.0377990037451434e-07 0.0000000000000000e+00  9.7365753373510823e-07 1.3654354586314052e-07 0.0000000000000000e+00  -2.4512148848645116e-06 -6.2475023413541276e-07 0.0000000000000000e+00  2.6446513057441135e-06 1.4056067533222795e-06 0.0000000000000000e+00  0.0000000000000000e+00 0.0000000000000000e+00 0.0000000000000000e+00  0.0000000000000000e+00 0.0000000000000000e+00 0.0000000000000000e+00  -2.3130779279189088e-06 1.1483557895654973e-06 0.0000000000000000e+00  1.7297980430926901e-06 -1.3157120789536615e-07 0.0000000000000000e+00  -3.7062660381541696e-07 2.6111200509521779e-07 0.0000000000000000e+00  3.1349895829861538e-09 5.9645341327628418e-09 0.0000000000000000e+00  -1.4533880747278739e-07 -2.3369966993330578e-08 0.0000000000000000e+00  -2.0439898473119809e-07 -7.3541718406809868e-08 0.0000000000000000e+00  -2.2279678030358900e-07 -9.0484985764543272e-08 0.0000000000000000e+00  -2.5163209572554096e-07 -9.3614621033907652e-08 0.0000000000000000e+00  -2.6534158015910294e-07 -8.7375127372162703e-08 0.0000000000000000e+00  -2.7429910846728956e-07 -7.5378945264388009e-08 0.0000000000000000e+00  -2.8074599495511805e-07 -5.9998457169025460e-08 0.0000000000000000e+00  -2.8587229800191766e-07 -4.2690675995420851e-08 0.0000000000000000e+00  -2.9150885503272048e-07 -2.4406781935722284e-08 0.0000000000000000e+00  -2.9859502231253645e-07 -5.7302083731691289e-09 0.0000000000000000e+00  -3.0784869487667044e-07 1.3004934759346504e-08 0.0000000000000000e+00  -3.1978083367180346e-07 3.1621641601947436e-08 0.0000000000000000e+00  -3.3473700436762853e-07 5.0000701063819750e-08 0.0000000000000000e+00  -3.5295396772382611e-07 6.7964275671626510e-08 0.0000000000000000e+00  -3.7454176112417376e-07 8.5156067703767690e-08 0.0000000000000000e+00  -3.9942276262648476e-07 1.0094511277651880e-07 0.0000000000000000e+00  -4.2723181469389798e-07 1.1439420269276898e-07 0.0000000000000000e+00  -4.5721271955910111e-07 1.2432774715980635e-07 0.0000000000000000e+00  -4.8815870851433722e-07 1.2950465927566534e-07 0.0000000000000000e+00  -5.1844904238221441e-07 1.2885866789158030e-07 0.0000000000000000e+00  -5.4618695964994593e-07 1.2173341626198062e-07 0.0000000000000000e+00  -5.6944019035293247e-07 1.0803334414325334e-07 0.0000000000000000e+00  -5.8646998102363737e-07 8.8244957313282795e-08 0.0000000000000000e+00  -5.9598621824319266e-07 6.3324330469296207e-08 0.0000000000000000e+00  -5.9715914466993202e-07 3.4512627893841758e-08 0.0000000000000000e+00  -5.8982775661100419e-07 3.1068754936299195e-09 0.0000000000000000e+00  -5.7400860904561614e-07 -2.9668628646954265e-08 0.0000000000000000e+00  -5.5063213915692088e-07 -6.2862071586112763e-08 0.0000000000000000e+00  -5.1969036115330158e-07 -9.5597615934136482e-08 0.0000000000000000e+00  -4.8371534505656835e-07 -1.2753099589745289e-07 0.0000000000000000e+00  -4.4046322570763114e-07 -1.5768356996105088e-07 0.0000000000000000e+00  -3.9776327993949402e-07 -1.8671058919469727e-07 0.0000000000000000e+00  -3.4330140931127173e-07 -2.1164825890860340e-07 0.0000000000000000e+00  -3.0611495539211644e-07 -2.3682469358280557e-07 0.0000000000000000e+00  -2.3215298804701757e-07 -2.5021216806909369e-07 0.0000000000000000e+00  -2.3547950349043992e-07 -2.7299282302887168e-07 0.0000000000000000e+00  -9.3790437215468418e-08 -2.5543968224616813e-07 0.0000000000000000e+00  -2.5749625657559954e-07 -2.9321027313719837e-07 0.0000000000000000e+00  1.5177480928548866e-07 -1.8490770305342725e-07 0.0000000000000000e+00  -6.3029093392501891e-07 -3.3700844868975794e-07 0.0000000000000000e+00  7.0377030207833879e-07 5.2280459019823065e-08 0.0000000000000000e+00  -2.6449773109008421e-06 -5.9538972981310235e-07 0.0000000000000000e+00  2.2706597385040511e-06 1.1783462635056747e-06 0.0000000000000000e+00  0.0000000000000000e+00 0.0000000000000000e+00 0.0000000000000000e+00  0.0000000000000000e+00 0.0000000000000000e+00 0.0000000000000000e+00  -2.5687720795791316e-06 1.1979965706239434e-06 0.0000000000000000e+00  2.3411904689216789e-06 -1.5968811652436466e-07 0.0000000000000000e+00  -6.7197462884407252e-07 3.4318160778128767e-07 0.0000000000000000e+00  2.7128963760386545e-07 1.9171973684435503e-08 0.0000000000000000e+00  -1.6113733087948940e-07 4.8507013492123416e-08 0.0000000000000000e+00  -1.0689110355689451e-07 -3.2839503026966404e-08 0.0000000000000000e+00  -1.5701188874849056e-07 -5.3043973744574581e-08 0.0000000000000000e+00  -1.9441647956350394e-07 -6.8537444372316015e-08 0.0000000000000000e+00  -2.1687491026945175e-07 -6.9648151641580799e-08 0.0000000000000000e+00  -2.3853093747432804e-07 -6.2890601511286755e-08 0.0000000000000000e+00  -2.5467608619129047e-07 -5.0495931258995589e-08 0.0000000000000000e+00  -2.6830727402591154e-07 -3.4436143242532718e-08 0.0000000000000000e+00  -2.8069973244099362e-07 -1.6134364217890286e-08 0.0000000000000000e+00  -2.9268587967597225e-07 3.4739336073424564e-09 0.0000000000000000e+00  -3.0509827542073327e-07 2.3776604369455447e-08 0.0000000000000000e+00  -3.1847750803964971e-07 4.4414265553612845e-08 0.0000000000000000e+00  -3.3325639386961945e-07 6.5153198671841670e-08 0.0000000000000000e+00  -3.4978785988169997e-07 8.5733264695461135e-08 0.0000000000000000e+00  -3.6833573736866052e-07 1.0569200366099372e-07 0.0000000000000000e+00  -3.8900963401963333e-07 1.2420470640037705e-07 0.0000000000000000e+00  -4.1163194610336439e-07 1.4000991927908485e-07 0.0000000000000000e+00  -4.3558837575731006e-07 1.5148690486348196e-07 0.0000000000000000e+00  -4.5973141414861050e-07 1.5690704582329288e-07 0.0000000000000000e+00  -4.8241999008900137e-07 1.5480265813400388e-07 0.0000000000000000e+00  -5.0171271161630091e-07 1.4432931493616063e-07 0.0000000000000000e+00  -5.1570280631492177e-07 1.2548627659422875e-07 0.0000000000000000e+00  -5.2283236953920719e-07 9.9120583421104694e-08 0.0000000000000000e+00  -5.2219566695508715e-07 6.6723506661380931e-08 0.0000000000000000e+00  -5.1351712749202674e-07 3.0123237945313946e-08 0.0000000000000000e+00  -4.9731204429608815e-07 -8.8523527602507956e-09 0.0000000000000000e+00  -4.7426016206141679e-07 -4.8568546144886558e-08 0.0000000000000000e+00  -4.4595672521725149e-07 -8.7796517566696445e-08 0.0000000000000000e+00  -4.1283899779932413e-07 -1.2549515469056272e-07 0.0000000000000000e+00  -3.7798699695544736e-07 -1.6121310060385005e-07 0.0000000000000000e+00  -3.3916087230206557e-07 -1.9390278943138799e-07 0.0000000000000000e+00  -3.0489847026883613e-07 -2.2407630340663033e-07 0.0000000000000000e+00  -2.6195208604159809e-07 -2.4873184521338867e-07 0.0000000000000000e+00  -2.4116005910533201e-07 -2.7176594030169105e-07 0.0000000000000000e+00  -1.8479165103410648e-07 -2.8164027778073131e-07 0.0000000000000000e+00  -2.1258651588681148e-07 -2.9805757857627507e-07 0.0000000000000000e+00  -9.0100925246485648e-08 -2.7526848446734287e-07 0.0000000000000000e+00  -2.8537835646123289e-07 -3.0231408530450724e-07 0.0000000000000000e+00  1.1558109428532023e-07 -1.9814330478237624e-07 0.0000000000000000e+00  -6.9970363554966382e-07 -3.3265842452219736e-07 0.0000000000000000e+00  6.5746172264966624e-07 1.1002197015679260e-08 0.0000000000000000e+00  -2.6936394205120380e-06 -5.5757183417373595e-07 0.0000000000000000e+00  2.2564493869203270e-06 1.0103060344397490e-06 0.0000000000000000e+00  0.0000000000000000e+00 0.0000000000000000e+00 0.0000000000000000e+00  0.0000000000000000e+00 0.0000000000000000e+00 0.0000000000000000e+00  -2.5183879994418536e-06 1.0946305103523162e-06 0.0000000000000000e+00  2.5874109432612707e-06 -1.3846108428879363e-07 0.0000000000000000e+00  -8.1063265110229054e-07 3.4813803828344065e-07 0.0000000000000000e+00  4.8493263032770413e-07 3.3976912105818713e-08 0.0000000000000000e+00  -2.0516528760947701e-07 1.0443445737859508e-07 0.0000000000000000e+00  9.9893238353244287e-09 4.4944656074036602e-09 0.0000000000000000e+00  -1.0521624790774294e-07 -9.0812985448080987e-09 0.0000000000000000e+00  -1.2211470371809983e-07 -3.5859210777191902e-08 0.0000000000000000e+00  -1.5500243608895502e-07 -4.1712806866754047e-08 0.0000000000000000e+00  -1.8409491153330852e-07 -4.0651015612653881e-08 0.0000000000000000e+00  -2.0712542566971907e-07 -3.1942860825241051e-08 0.0000000000000000e+00  -2.2806416867152629e-07 -1.8406477540423732e-08 0.0000000000000000e+00  -2.4642572310822578e-07 -1.5454270262736435e-09 0.0000000000000000e+00  -2.6328210103560737e-07 1.7436640004230725e-08 0.0000000000000000e+00  -2.7928749130773905e-07 3.7709998548629703e-08 0.0000000000000000e+00  -2.9492049853733510e-07 5.8776262400269503e-08 0.0000000000000000e+00  -3.1064189200431755e-07 8.0329402711740219e-08 0.0000000000000000e+00  -3.2687005725275469e-07 1.0208838891045145e-07 0.0000000000000000e+00  -3.4401240948859261e-07 1.2355322588944308e-07 0.0000000000000000e+00  -3.6238024163849939e-07 1.4375341876237014e-07 0.0000000000000000e+00  -3.8200355309529738e-07 1.6109420385324580e-07 0.0000000000000000e+00  -4.0239934184463335e-07 1.7342904697653462e-07 0.0000000000000000e+00  -4.2240297940116637e-07 1.7842023359232617e-07 0.0000000000000000e+00  -4.4020444079494688e-07 1.7410489198675419e-07 0.0000000000000000e+00  -4.5363352060697823e-07 1.5945255067415604e-07 0.0000000000000000e+00  -4.6065382132256463e-07 1.3467879629714738e-07 0.0000000000000000e+00  -4.5981875428271761e-07 1.0119712998019834e-07 0.0000000000000000e+00  -4.5063555647752964e-07 6.1252130005791224e-08 0.0000000000000000e+00  -4.3347949648090530e-07 1.7419347800060361e-08 0.0000000000000000e+00  -4.0964522955742298e-07 -2.7879571942580346e-08 0.0000000000000000e+00  -3.8054510129252936e-07 -7.2633603813491438e-08 0.0000000000000000e+00  -3.4842665362745298e-07 -1.1544377689339746e-07 0.0000000000000000e+00  -3.1411638620635753e-07 -1.5524548543037005e-07 0.0000000000000000e+00  -2.8106588984324632e-07 -1.9163606607501402e-