<?xml version="1.0"?>
<VTKFile type="UnstructuredGrid"  version="0.1"  >
<UnstructuredGrid>
<Piece  NumberOfPoints="1617" NumberOfCells="3072">
<Points>
<DataArray  type="Float64"  NumberOfComponents="3"  format="ascii">0 0 0  0.03125 0 0  0.0625 0 0  0.09375 0 0  0.125 0 0  0.15625 0 0  0.1875 0 0  0.21875 0 0  0.25 0 0  0.28125 0 0  0.3125 0 0  0.34375 0 0  0.375 0 0  0.40625 0 0  0.4375 0 0  0.46875 0 0  0.5 0 0  0.53125 0 0  0.5625 0 0  0.59375 0 0  0.625 0 0  0.65625 0 0  0.6875 0 0  0.71875 0 0  0.75 0 0  0.78125 0 0  0.8125 0 0  0.84375 0 0  0.875 0 0  0.90625 0 0  0.9375 0 0  0.96875 0 0  1 0 0  1.03125 0 0  1.0625 0 0  1.09375 0 0  1.125 0 0  1.15625 0 0  1.1875 0 0  1.21875 0 0  1.25 0 0  1.28125 0 0  1.3125 0 0  1.34375 0 0  1.375 0 0  1.40625 0 0  1.4375 0 0  1.46875 0 0  1.5 0 0  0 0.03125 0  0.03125 0.03125 0  0.0625 0.03125 0  0.09375 0.03125 0  0.125 0.03125 0  0.15625 0.03125 0  0.1875 0.03125 0  0.21875 0.03125 0  0.25 0.03125 0  0.28125 0.03125 0  0.3125 0.03125 0  0.34375 0.03125 0  0.375 0.03125 0  0.40625 0.03125 0  0.4375 0.03125 0  0.46875 0.03125 0  0.5 0.03125 0  0.53125 0.03125 0  0.5625 0.03125 0  0.59375 0.03125 0  0.625 0.03125 0  0.65625 0.03125 0  0.6875 0.03125 0  0.71875 0.03125 0  0.75 0.03125 0  0.78125 0.03125 0  0.8125 0.03125 0  0.84375 0.03125 0  0.875 0.03125 0  0.90625 0.03125 0  0.9375 0.03125 0  0.96875 0.03125 0  1 0.03125 0  1.03125 0.03125 0  1.0625 0.03125 0  1.09375 0.03125 0  1.125 0.03125 0  1.15625 0.03125 0  1.1875 0.03125 0  1.21875 0.03125 0  1.25 0.03125 0  1.28125 0.03125 0  1.3125 0.03125 0  1.34375 0.03125 0  1.375 0.03125 0  1.40625 0.03125 0  1.4375 0.03125 0  1.46875 0.03125 0  1.5 0.03125 0  0 0.0625 0  0.03125 0.0625 0  0.0625 0.0625 0  0.09375 0.0625 0  0.125 0.0625 0  0.15625 0.0625 0  0.1875 0.0625 0  0.21875 0.0625 0  0.25 0.0625 0  0.28125 0.0625 0  0.3125 0.0625 0  0.34375 0.0625 0  0.375 0.0625 0  0.40625 0.0625 0  0.4375 0.0625 0  0.46875 0.0625 0  0.5 0.0625 0  0.53125 0.0625 0  0.5625 0.0625 0  0.59375 0.0625 0  0.625 0.0625 0  0.65625 0.0625 0  0.6875 0.0625 0  0.71875 0.0625 0  0.75 0.0625 0  0.78125 0.0625 0  0.8125 0.0625 0  0.84375 0.0625 0  0.875 0.0625 0  0.90625 0.0625 0  0.9375 0.0625 0  0.96875 0.0625 0  1 0.0625 0  1.03125 0.0625 0  1.0625 0.0625 0  1.09375 0.0625 0  1.125 0.0625 0  1.15625 0.0625 0  1.1875 0.0625 0  1.21875 0.0625 0  1.25 0.0625 0  1.28125 0.0625 0  1.3125 0.0625 0  1.34375 0.0625 0  1.375 0.0625 0  1.40625 0.0625 0  1.4375 0.0625 0  1.46875 0.0625 0  1.5 0.0625 0  0 0.09375 0  0.03125 0.09375 0  0.0625 0.09375 0  0.09375 0.09375 0  0.125 0.09375 0  0.15625 0.09375 0  0.1875 0.09375 0  0.21875 0.09375 0  0.25 0.09375 0  0.28125 0.09375 0  0.3125 0.09375 0  0.34375 0.09375 0  0.375 0.09375 0  0.40625 0.09375 0  0.4375 0.09375 0  0.46875 0.09375 0  0.5 0.09375 0  0.53125 0.09375 0  0.5625 0.09375 0  0.59375 0.09375 0  0.625 0.09375 0  0.65625 0.09375 0  0.6875 0.09375 0  0.71875 0.09375 0  0.75 0.09375 0  0.78125 0.09375 0  0.8125 0.09375 0  0.84375 0.09375 0  0.875 0.09375 0  0.90625 0.09375 0  0.9375 0.09375 0  0.96875 0.09375 0  1 0.09375 0  1.03125 0.09375 0  1.0625 0.09375 0  1.09375 0.09375 0  1.125 0.09375 0  1.15625 0.09375 0  1.1875 0.09375 0  1.21875 0.09375 0  1.25 0.09375 0  1.28125 0.09375 0  1.3125 0.09375 0  1.34375 0.09375 0  1.375 0.09375 0  1.40625 0.09375 0  1.4375 0.09375 0  1.46875 0.09375 0  1.5 0.09375 0  0 0.125 0  0.03125 0.125 0  0.0625 0.125 0  0.09375 0.125 0  0.125 0.125 0  0.15625 0.125 0  0.1875 0.125 0  0.21875 0.125 0  0.25 0.125 0  0.28125 0.125 0  0.3125 0.125 0  0.34375 0.125 0  0.375 0.125 0  0.40625 0.125 0  0.4375 0.125 0  0.46875 0.125 0  0.5 0.125 0  0.53125 0.125 0  0.5625 0.125 0  0.59375 0.125 0  0.625 0.125 0  0.65625 0.125 0  0.6875 0.125 0  0.71875 0.125 0  0.75 0.125 0  0.78125 0.125 0  0.8125 0.125 0  0.84375 0.125 0  0.875 0.125 0  0.90625 0.125 0  0.9375 0.125 0  0.96875 0.125 0  1 0.125 0  1.03125 0.125 0  1.0625 0.125 0  1.09375 0.125 0  1.125 0.125 0  1.15625 0.125 0  1.1875 0.125 0  1.21875 0.125 0  1.25 0.125 0  1.28125 0.125 0  1.3125 0.125 0  1.34375 0.125 0  1.375 0.125 0  1.40625 0.125 0  1.4375 0.125 0  1.46875 0.125 0  1.5 0.125 0  0 0.15625 0  0.03125 0.15625 0  0.0625 0.15625 0  0.09375 0.15625 0  0.125 0.15625 0  0.15625 0.15625 0  0.1875 0.15625 0  0.21875 0.15625 0  0.25 0.15625 0  0.28125 0.15625 0  0.3125 0.15625 0  0.34375 0.15625 0  0.375 0.15625 0  0.40625 0.15625 0  0.4375 0.15625 0  0.46875 0.15625 0  0.5 0.15625 0  0.53125 0.15625 0  0.5625 0.15625 0  0.59375 0.15625 0  0.625 0.15625 0  0.65625 0.15625 0  0.6875 0.15625 0  0.71875 0.15625 0  0.75 0.15625 0  0.78125 0.15625 0  0.8125 0.15625 0  0.84375 0.15625 0  0.875 0.15625 0  0.90625 0.15625 0  0.9375 0.15625 0  0.96875 0.15625 0  1 0.15625 0  1.03125 0.15625 0  1.0625 0.15625 0  1.09375 0.15625 0  1.125 0.15625 0  1.15625 0.15625 0  1.1875 0.15625 0  1.21875 0.15625 0  1.25 0.15625 0  1.28125 0.15625 0  1.3125 0.15625 0  1.34375 0.15625 0  1.375 0.15625 0  1.40625 0.15625 0  1.4375 0.15625 0  1.46875 0.15625 0  1.5 0.15625 0  0 0.1875 0  0.03125 0.1875 0  0.0625 0.1875 0  0.09375 0.1875 0  0.125 0.1875 0  0.15625 0.1875 0  0.1875 0.1875 0  0.21875 0.1875 0  0.25 0.1875 0  0.28125 0.1875 0  0.3125 0.1875 0  0.34375 0.1875 0  0.375 0.1875 0  0.40625 0.1875 0  0.4375 0.1875 0  0.46875 0.1875 0  0.5 0.1875 0  0.53125 0.1875 0  0.5625 0.1875 0  0.59375 0.1875 0  0.625 0.1875 0  0.65625 0.1875 0  0.6875 0.1875 0  0.71875 0.1875 0  0.75 0.1875 0  0.78125 0.1875 0  0.8125 0.1875 0  0.84375 0.1875 0  0.875 0.1875 0  0.90625 0.1875 0  0.9375 0.1875 0  0.96875 0.1875 0  1 0.1875 0  1.03125 0.1875 0  1.0625 0.1875 0  1.09375 0.1875 0  1.125 0.1875 0  1.15625 0.1875 0  1.1875 0.1875 0  1.21875 0.1875 0  1.25 0.1875 0  1.28125 0.1875 0  1.3125 0.1875 0  1.34375 0.1875 0  1.375 0.1875 0  1.40625 0.1875 0  1.4375 0.1875 0  1.46875 0.1875 0  1.5 0.1875 0  0 0.21875 0  0.03125 0.21875 0  0.0625 0.21875 0  0.09375 0.21875 0  0.125 0.21875 0  0.15625 0.21875 0  0.1875 0.21875 0  0.21875 0.21875 0  0.25 0.21875 0  0.28125 0.21875 0  0.3125 0.21875 0  0.34375 0.21875 0  0.375 0.21875 0  0.40625 0.21875 0  0.4375 0.21875 0  0.46875 0.21875 0  0.5 0.21875 0  0.53125 0.21875 0  0.5625 0.21875 0  0.59375 0.21875 0  0.625 0.21875 0  0.65625 0.21875 0  0.6875 0.21875 0  0.71875 0.21875 0  0.75 0.21875 0  0.78125 0.21875 0  0.8125 0.21875 0  0.84375 0.21875 0  0.875 0.21875 0  0.90625 0.21875 0  0.9375 0.21875 0  0.96875 0.21875 0  1 0.21875 0  1.03125 0.21875 0  1.0625 0.21875 0  1.09375 0.21875 0  1.125 0.21875 0  1.15625 0.21875 0  1.1875 0.21875 0  1.21875 0.21875 0  1.25 0.21875 0  1.28125 0.21875 0  1.3125 0.21875 0  1.34375 0.21875 0  1.375 0.21875 0  1.40625 0.21875 0  1.4375 0.21875 0  1.46875 0.21875 0  1.5 0.21875 0  0 0.25 0  0.03125 0.25 0  0.0625 0.25 0  0.09375 0.25 0  0.125 0.25 0  0.15625 0.25 0  0.1875 0.25 0  0.21875 0.25 0  0.25 0.25 0  0.28125 0.25 0  0.3125 0.25 0  0.34375 0.25 0  0.375 0.25 0  0.40625 0.25 0  0.4375 0.25 0  0.46875 0.25 0  0.5 0.25 0  0.53125 0.25 0  0.5625 0.25 0  0.59375 0.25 0  0.625 0.25 0  0.65625 0.25 0  0.6875 0.25 0  0.71875 0.25 0  0.75 0.25 0  0.78125 0.25 0  0.8125 0.25 0  0.84375 0.25 0  0.875 0.25 0  0.90625 0.25 0  0.9375 0.25 0  0.96875 0.25 0  1 0.25 0  1.03125 0.25 0  1.0625 0.25 0  1.09375 0.25 0  1.125 0.25 0  1.15625 0.25 0  1.1875 0.25 0  1.21875 0.25 0  1.25 0.25 0  1.28125 0.25 0  1.3125 0.25 0  1.34375 0.25 0  1.375 0.25 0  1.40625 0.25 0  1.4375 0.25 0  1.46875 0.25 0  1.5 0.25 0  0 0.28125 0  0.03125 0.28125 0  0.0625 0.28125 0  0.09375 0.28125 0  0.125 0.28125 0  0.15625 0.28125 0  0.1875 0.28125 0  0.21875 0.28125 0  0.25 0.28125 0  0.28125 0.28125 0  0.3125 0.28125 0  0.34375 0.28125 0  0.375 0.28125 0  0.40625 0.28125 0  0.4375 0.28125 0  0.46875 0.28125 0  0.5 0.28125 0  0.53125 0.28125 0  0.5625 0.28125 0  0.59375 0.28125 0  0.625 0.28125 0  0.65625 0.28125 0  0.6875 0.28125 0  0.71875 0.28125 0  0.75 0.28125 0  0.78125 0.28125 0  0.8125 0.28125 0  0.84375 0.28125 0  0.875 0.28125 0  0.90625 0.28125 0  0.9375 0.28125 0  0.96875 0.28125 0  1 0.28125 0  1.03125 0.28125 0  1.0625 0.28125 0  1.09375 0.28125 0  1.125 0.28125 0  1.15625 0.28125 0  1.1875 0.28125 0  1.21875 0.28125 0  1.25 0.28125 0  1.28125 0.28125 0  1.3125 0.28125 0  1.34375 0.28125 0  1.375 0.28125 0  1.40625 0.28125 0  1.4375 0.28125 0  1.46875 0.28125 0  1.5 0.28125 0  0 0.3125 0  0.03125 0.3125 0  0.0625 0.3125 0  0.09375 0.3125 0  0.125 0.3125 0  0.15625 0.3125 0  0.1875 0.3125 0  0.21875 0.3125 0  0.25 0.3125 0  0.28125 0.3125 0  0.3125 0.3125 0  0.34375 0.3125 0  0.375 0.3125 0  0.40625 0.3125 0  0.4375 0.3125 0  0.46875 0.3125 0  0.5 0.3125 0  0.53125 0.3125 0  0.5625 0.3125 0  0.59375 0.3125 0  0.625 0.3125 0  0.65625 0.3125 0  0.6875 0.3125 0  0.71875 0.3125 0  0.75 0.3125 0  0.78125 0.3125 0  0.8125 0.3125 0  0.84375 0.3125 0  0.875 0.3125 0  0.90625 0.3125 0  0.9375 0.3125 0  0.96875 0.3125 0  1 0.3125 0  1.03125 0.3125 0  1.0625 0.3125 0  1.09375 0.3125 0  1.125 0.3125 0  1.15625 0.3125 0  1.1875 0.3125 0  1.21875 0.3125 0  1.25 0.3125 0  1.28125 0.3125 0  1.3125 0.3125 0  1.34375 0.3125 0  1.375 0.3125 0  1.40625 0.3125 0  1.4375 0.3125 0  1.46875 0.3125 0  1.5 0.3125 0  0 0.34375 0  0.03125 0.34375 0  0.0625 0.34375 0  0.09375 0.34375 0  0.125 0.34375 0  0.15625 0.34375 0  0.1875 0.34375 0  0.21875 0.34375 0  0.25 0.34375 0  0.28125 0.34375 0  0.3125 0.34375 0  0.34375 0.34375 0  0.375 0.34375 0  0.40625 0.34375 0  0.4375 0.34375 0  0.46875 0.34375 0  0.5 0.34375 0  0.53125 0.34375 0  0.5625 0.34375 0  0.59375 0.34375 0  0.625 0.34375 0  0.65625 0.34375 0  0.6875 0.34375 0  0.71875 0.34375 0  0.75 0.34375 0  0.78125 0.34375 0  0.8125 0.34375 0  0.84375 0.34375 0  0.875 0.34375 0  0.90625 0.34375 0  0.9375 0.34375 0  0.96875 0.34375 0  1 0.34375 0  1.03125 0.34375 0  1.0625 0.34375 0  1.09375 0.34375 0  1.125 0.34375 0  1.15625 0.34375 0  1.1875 0.34375 0  1.21875 0.34375 0  1.25 0.34375 0  1.28125 0.34375 0  1.3125 0.34375 0  1.34375 0.34375 0  1.375 0.34375 0  1
[...]
<PointData  Vectors="f_17"> 
<DataArray  type="Float64"  Name="f_17"  NumberOfComponents="3" format="ascii">0.0000000000000000e+00 0.0000000000000000e+00 0.0000000000000000e+00  0.0000000000000000e+00 0.0000000000000000e+00 0.0000000000000000e+00  0.0000000000000000e+00 0.0000000000000000e+00 0.0000000000000000e+00  0.0000000000000000e+00 0.0000000000000000e+00 0.0000000000000000e+00  0.0000000000000000e+00 0.0000000000000000e+00 0.0000000000000000e+00  0.0000000000000000e+00 0.0000000000000000e+00 0.0000000000000000e+00  0.0000000000000000e+00 0.0000000000000000e+00 0.0000000000000000e+00  0.0000000000000000e+00 0.0000000000000000e+00 0.0000000000000000e+00  0.0000000000000000e+00 0.0000000000000000e+00 0.0000000000000000e+00  0.0000000000000000e+00 0.0000000000000000e+00 0.0000000000000000e+00  0.0000000000000000e+00 0.0000000000000000e+00 0.0000000000000000e+00  0.0000000000000000e+00 0.0000000000000000e+00 0.0000000000000000e+00  0.0000000000000000e+00 0.0000000000000000e+00 0.0000000000000000e+00  0.0000000000000000e+00 0.0000000000000000e+00 0.0000000000000000e+00  0.0000000000000000e+00 0.0000000000000000e+00 0.0000000000000000e+00  0.0000000000000000e+00 0.0000000000000000e+00 0.0000000000000000e+00  0.0000000000000000e+00 0.0000000000000000e+00 0.0000000000000000e+00  0.0000000000000000e+00 0.0000000000000000e+00 0.0000000000000000e+00  0.0000000000000000e+00 0.0000000000000000e+00 0.0000000000000000e+00  0.0000000000000000e+00 0.0000000000000000e+00 0.0000000000000000e+00  0.0000000000000000e+00 0.0000000000000000e+00 0.0000000000000000e+00  0.0000000000000000e+00 0.0000000000000000e+00 0.0000000000000000e+00  0.0000000000000000e+00 0.0000000000000000e+00 0.0000000000000000e+00  0.0000000000000000e+00 0.0000000000000000e+00 0.0000000000000000e+00  0.0000000000000000e+00 0.0000000000000000e+00 0.0000000000000000e+00  0.0000000000000000e+00 0.0000000000000000e+00 0.0000000000000000e+00  0.0000000000000000e+00 0.0000000000000000e+00 0.0000000000000000e+00  0.0000000000000000e+00 0.0000000000000000e+00 0.0000000000000000e+00  0.0000000000000000e+00 0.0000000000000000e+00 0.0000000000000000e+00  0.0000000000000000e+00 0.0000000000000000e+00 0.0000000000000000e+00  0.0000000000000000e+00 0.0000000000000000e+00 0.0000000000000000e+00  0.0000000000000000e+00 0.0000000000000000e+00 0.0000000000000000e+00  0.0000000000000000e+00 0.0000000000000000e+00 0.0000000000000000e+00  0.0000000000000000e+00 0.0000000000000000e+00 0.0000000000000000e+00  0.0000000000000000e+00 0.0000000000000000e+00 0.0000000000000000e+00  0.0000000000000000e+00 0.0000000000000000e+00 0.0000000000000000e+00  0.0000000000000000e+00 0.0000000000000000e+00 0.0000000000000000e+00  0.0000000000000000e+00 0.0000000000000000e+00 0.0000000000000000e+00  0.0000000000000000e+00 0.0000000000000000e+00 0.0000000000000000e+00  0.0000000000000000e+00 0.0000000000000000e+00 0.0000000000000000e+00  0.0000000000000000e+00 0.0000000000000000e+00 0.0000000000000000e+00  0.0000000000000000e+00 0.0000000000000000e+00 0.0000000000000000e+00  0.0000000000000000e+00 0.0000000000000000e+00 0.0000000000000000e+00  0.0000000000000000e+00 0.0000000000000000e+00 0.0000000000000000e+00  0.0000000000000000e+00 0.0000000000000000e+00 0.0000000000000000e+00  0.0000000000000000e+00 0.0000000000000000e+00 0.0000000000000000e+00  0.0000000000000000e+00 0.0000000000000000e+00 0.0000000000000000e+00  0.0000000000000000e+00 0.0000000000000000e+00 0.0000000000000000e+00  0.0000000000000000e+00 0.0000000000000000e+00 0.0000000000000000e+00  0.0000000000000000e+00 0.0000000000000000e+00 0.0000000000000000e+00  -5.8301854330770642e-08 -2.7954875915499128e-08 0.0000000000000000e+00  -1.2754032068329252e-07 1.1070160732214213e-07 0.0000000000000000e+00  -4.5823289403454156e-08 -4.4284793801338798e-10 0.0000000000000000e+00  -2.4361778075380088e-07 -3.4814160874747463e-08 0.0000000000000000e+00  -2.3724794466592324e-07 -6.2506578396153269e-08 0.0000000000000000e+00  -2.3501996034912915e-07 -6.9258331147552987e-08 0.0000000000000000e+00  -2.3560709083796843e-07 -6.3755941988822030e-08 0.0000000000000000e+00  -2.2433639042578993e-07 -5.5486799671236280e-08 0.0000000000000000e+00  -2.1327810949286455e-07 -4.5917179808700571e-08 0.0000000000000000e+00  -2.0282528799249151e-07 -3.6249378020684006e-08 0.0000000000000000e+00  -1.9444387877563437e-07 -2.6941072717135713e-08 0.0000000000000000e+00  -1.8950370570858008e-07 -1.8095073765260222e-08 0.0000000000000000e+00  -1.8854392301129083e-07 -9.7460633676447762e-09 0.0000000000000000e+00  -1.9197526723513639e-07 -1.8579117873168566e-09 0.0000000000000000e+00  -2.0004577123605268e-07 5.6413499006144146e-09 0.0000000000000000e+00  -2.1291030800633734e-07 1.2830730625252856e-08 0.0000000000000000e+00  -2.3067793637331768e-07 1.9765725065780203e-08 0.0000000000000000e+00  -2.5340135179910492e-07 2.6443033995032696e-08 0.0000000000000000e+00  -2.8103800119761849e-07 3.2767773082356170e-08 0.0000000000000000e+00  -3.1338038827973210e-07 3.8533167986216516e-08 0.0000000000000000e+00  -3.4997053279166534e-07 4.3423428569918060e-08 0.0000000000000000e+00  -3.9002375032097355e-07 4.7046580911117087e-08 0.0000000000000000e+00  -4.3238608119618272e-07 4.8995084197861222e-08 0.0000000000000000e+00  -4.7555269366616608e-07 4.8921392857565449e-08 0.0000000000000000e+00  -5.1774488280147581e-07 4.6608391318786129e-08 0.0000000000000000e+00  -5.5705561654103347e-07 4.2013795348817074e-08 0.0000000000000000e+00  -5.9159217700548165e-07 3.5278351123945798e-08 0.0000000000000000e+00  -6.1967046143513752e-07 2.6692675739861401e-08 0.0000000000000000e+00  -6.3984543518258066e-07 1.6648169374885505e-08 0.0000000000000000e+00  -6.5114426294516134e-07 5.5552446028721772e-09 0.0000000000000000e+00  -6.5270899329777234e-07 -6.1733357602925980e-09 0.0000000000000000e+00  -6.4450545218486654e-07 -1.8254491480659318e-08 0.0000000000000000e+00  -6.2570993293765502e-07 -3.0335855914851167e-08 0.0000000000000000e+00  -5.9785749533564581e-07 -4.2479479384260331e-08 0.0000000000000000e+00  -5.5812960749371574e-07 -5.4042255308092968e-08 0.0000000000000000e+00  -5.1308829630451746e-07 -6.6093786969745205e-08 0.0000000000000000e+00  -4.5024771662682622e-07 -7.5951165561322414e-08 0.0000000000000000e+00  -3.9661635584643719e-07 -8.9020089353498524e-08 0.0000000000000000e+00  -2.9860689414929406e-07 -9.2816288580612565e-08 0.0000000000000000e+00  -2.6777470243034513e-07 -1.1273780174205450e-07 0.0000000000000000e+00  -8.0889577251991421e-08 -9.2279078364804657e-08 0.0000000000000000e+00  -1.9259482401016708e-07 -1.4590872903913910e-07 0.0000000000000000e+00  2.9896227950640514e-07 -2.8157131746935802e-08 0.0000000000000000e+00  -4.3447526797084989e-07 -2.3541637093410705e-07 0.0000000000000000e+00  1.1223328308038714e-06 2.3382982791067115e-07 0.0000000000000000e+00  -2.4797605697618811e-06 -7.5724780250389853e-07 0.0000000000000000e+00  2.9270594248431278e-06 1.3354232380214358e-06 0.0000000000000000e+00  0.0000000000000000e+00 0.0000000000000000e+00 0.0000000000000000e+00  0.0000000000000000e+00 0.0000000000000000e+00 0.0000000000000000e+00  -1.4448773217153449e-06 6.1681595002160581e-07 0.0000000000000000e+00  7.9149395007302169e-07 -3.6769363183171057e-08 0.0000000000000000e+00  -8.3869805613115247e-08 1.1328497642749393e-07 0.0000000000000000e+00  -2.4337541270920658e-07 1.8529036654685163e-09 0.0000000000000000e+00  -2.5871569352586852e-07 -4.8263122256870814e-08 0.0000000000000000e+00  -3.2301849392000338e-07 -7.1847577802447737e-08 0.0000000000000000e+00  -3.2935409006315979e-07 -7.8942303784644293e-08 0.0000000000000000e+00  -3.2584467083353835e-07 -7.6722957014067279e-08 0.0000000000000000e+00  -3.1785633719431139e-07 -6.8906001270320783e-08 0.0000000000000000e+00  -3.0660720184522017e-07 -5.8029742912711539e-08 0.0000000000000000e+00  -2.9674656153956245e-07 -4.5434144381736237e-08 0.0000000000000000e+00  -2.8956487123863168e-07 -3.1966077968587639e-08 0.0000000000000000e+00  -2.8610050104029660e-07 -1.8152496573332037e-08 0.0000000000000000e+00  -2.8703791267342900e-07 -4.2840285151427435e-09 0.0000000000000000e+00  -2.9272481107677281e-07 9.5018845616043994e-09 0.0000000000000000e+00  -3.0338164952534292e-07 2.3152177336799416e-08 0.0000000000000000e+00  -3.1913024678636502e-07 3.6625963092885578e-08 0.0000000000000000e+00  -3.4001208728324352e-07 4.9814163324436410e-08 0.0000000000000000e+00  -3.6596085904331342e-07 6.2462066886540822e-08 0.0000000000000000e+00  -3.9673001735342782e-07 7.4113998253087162e-08 0.0000000000000000e+00  -4.3179564012406042e-07 8.4103715233933157e-08 0.0000000000000000e+00  -4.7026395466350248e-07 9.1608483884167031e-08 0.0000000000000000e+00  -5.1081864489780825e-07 9.5766303154407303e-08 0.0000000000000000e+00  -5.5174666485429120e-07 9.5831416833033034e-08 0.0000000000000000e+00  -5.9104275371615186e-07 9.1324791415556721e-08 0.0000000000000000e+00  -6.2660043099695146e-07 8.2133081043141123e-08 0.0000000000000000e+00  -6.5639805420688315e-07 6.8529536642720557e-08 0.0000000000000000e+00  -6.7873082662994684e-07 5.1110068321122367e-08 0.0000000000000000e+00  -6.9224132907974150e-07 3.0684081072416554e-08 0.0000000000000000e+00  -6.9615674286565803e-07 8.1220012099135663e-09 0.0000000000000000e+00  -6.8987035003406012e-07 -1.5720593567590860e-08 0.0000000000000000e+00  -6.7367914508164186e-07 -4.0174772556334371e-08 0.0000000000000000e+00  -6.4703729021702939e-07 -6.4572856755645093e-08 0.0000000000000000e+00  -6.1188825628795953e-07 -8.8715869881249518e-08 0.0000000000000000e+00  -5.6561579902392981e-07 -1.1175869085217558e-07 0.0000000000000000e+00  -5.1537578592167350e-07 -1.3449508465469723e-07 0.0000000000000000e+00  -4.4874481608062688e-07 -1.5412610621352300e-07 0.0000000000000000e+00  -3.9376719773977111e-07 -1.7532227485220194e-07 0.0000000000000000e+00  -2.9684097840506926e-07 -1.8604771964391282e-07 0.0000000000000000e+00  -2.7091719970808804e-07 -2.0878645189088098e-07 0.0000000000000000e+00  -9.3987125426212576e-08 -1.9140543835040293e-07 0.0000000000000000e+00  -2.1972792366548936e-07 -2.3613033055979284e-07 0.0000000000000000e+00  2.4239566509860665e-07 -1.2324707569737879e-07 0.0000000000000000e+00  -5.1010683576202706e-07 -2.9807503134209734e-07 0.0000000000000000e+00  9.3540567069606203e-07 1.3042252730761230e-07 0.0000000000000000e+00  -2.4939566469296913e-06 -6.4109193798875031e-07 0.0000000000000000e+00  2.8540122457325196e-06 1.3384594990773419e-06 0.0000000000000000e+00  0.0000000000000000e+00 0.0000000000000000e+00 0.0000000000000000e+00  0.0000000000000000e+00 0.0000000000000000e+00 0.0000000000000000e+00  -2.5384405612304067e-06 1.0837633737405651e-06 0.0000000000000000e+00  1.7336461321724761e-06 -1.4628860747907950e-07 0.0000000000000000e+00  -3.6890054486467769e-07 2.6415935053072223e-07 0.0000000000000000e+00  2.9040918569097378e-08 2.1403684339003132e-08 0.0000000000000000e+00  -1.1467433959454521e-07 -3.2500730805418411e-09 0.0000000000000000e+00  -1.7577297436785300e-07 -5.3739977315254545e-08 0.0000000000000000e+00  -1.9723184830605347e-07 -7.2393557279651277e-08 0.0000000000000000e+00  -2.2960334297589939e-07 -7.7575370864658866e-08 0.0000000000000000e+00  -2.4678561635618231e-07 -7.3229152707485602e-08 0.0000000000000000e+00  -2.5901041419066045e-07 -6.2866085768388366e-08 0.0000000000000000e+00  -2.6849210076260376e-07 -4.8905636167430340e-08 0.0000000000000000e+00  -2.7642052629822435e-07 -3.2866773644107441e-08 0.0000000000000000e+00  -2.8462460767017771e-07 -1.5740968699288393e-08 0.0000000000000000e+00  -2.9404202000985753e-07 1.8753594640000747e-09 0.0000000000000000e+00  -3.0539440101931509e-07 1.9655806736959122e-08 0.0000000000000000e+00  -3.1920584220627477e-07 3.7443105514059210e-08 0.0000000000000000e+00  -3.3584643164233934e-07 5.5141331758640785e-08 0.0000000000000000e+00  -3.5558863816182666e-07 7.2591427561987029e-08 0.0000000000000000e+00  -3.7858663649239611e-07 8.9444030069702692e-08 0.0000000000000000e+00  -4.0480980456472419e-07 1.0505771869686824e-07 0.0000000000000000e+00  -4.3393505147040242e-07 1.1846537835119367e-07 0.0000000000000000e+00  -4.6523509905022049e-07 1.2844501647307212e-07 0.0000000000000000e+00  -4.9751316016525887e-07 1.3370081177114381e-07 0.0000000000000000e+00  -5.2913895462369958e-07 1.3311490831278827e-07 0.0000000000000000e+00  -5.5819241370742891e-07 1.2599378312068323e-07 0.0000000000000000e+00  -5.8271470099792097e-07 1.1222659362295289e-07 0.0000000000000000e+00  -6.0094875233936943e-07 9.2308112295544411e-08 0.0000000000000000e+00  -6.1160283468738302e-07 6.7222338156615995e-08 0.0000000000000000e+00  -6.1386535145881927e-07 3.8250511285629108e-08 0.0000000000000000e+00  -6.0761080264874722e-07 6.7332683091655029e-09 0.0000000000000000e+00  -5.9290275355279626e-07 -2.6065563075127120e-08 0.0000000000000000e+00  -5.7072235442662337e-07 -5.9164112358578166e-08 0.0000000000000000e+00  -5.4110970009039517e-07 -9.1668717875941365e-08 0.0000000000000000e+00  -5.0663515655649111e-07 -1.2322990914947928e-07 0.0000000000000000e+00  -4.6508324547501819e-07 -1.5287498096118245e-07 0.0000000000000000e+00  -4.2429388495172458e-07 -1.8127394162102985e-07 0.0000000000000000e+00  -3.7196860260803823e-07 -2.0548452071701129e-07 0.0000000000000000e+00  -3.3713753061144963e-07 -2.2986587978072481e-07 0.0000000000000000e+00  -2.6584488672444260e-07 -2.4244204180859092e-07 0.0000000000000000e+00  -2.7212109978951533e-07 -2.6451309257265322e-07 0.0000000000000000e+00  -1.3397787262113667e-07 -2.4661746898382612e-07 0.0000000000000000e+00  -3.0117415732896503e-07 -2.8500353814591492e-07 0.0000000000000000e+00  1.0528986375341141e-07 -1.7950058958284886e-07 0.0000000000000000e+00  -6.7608383142872486e-07 -3.3792278898952221e-07 0.0000000000000000e+00  6.8813905614328254e-07 3.6372163156067368e-08 0.0000000000000000e+00  -2.6651627337043775e-06 -6.2476818161745199e-07 0.0000000000000000e+00  2.4952393778038375e-06 1.1049807578630010e-06 0.0000000000000000e+00  0.0000000000000000e+00 0.0000000000000000e+00 0.0000000000000000e+00  0.0000000000000000e+00 0.0000000000000000e+00 0.0000000000000000e+00  -2.8004927063452681e-06 1.1306540813100327e-06 0.0000000000000000e+00  2.3383810645079176e-06 -1.8137695900207354e-07 0.0000000000000000e+00  -6.8442269220076842e-07 3.3667767474513314e-07 0.0000000000000000e+00  2.8651723386773811e-07 2.8539844383178326e-08 0.0000000000000000e+00  -1.4106785734683827e-07 6.5163772975737718e-08 0.0000000000000000e+00  -8.6572676032146839e-08 -1.3933983189796807e-08 0.0000000000000000e+00  -1.3714537883892059e-07 -3.4129120627361397e-08 0.0000000000000000e+00  -1.7596832018974467e-07 -5.0720102694607092e-08 0.0000000000000000e+00  -2.0015571564359613e-07 -5.3253804295340899e-08 0.0000000000000000e+00  -2.2374908382604033e-07 -4.7957480797885850e-08 0.0000000000000000e+00  -2.4193905083956403e-07 -3.6981532128302644e-08 0.0000000000000000e+00  -2.5764838541290008e-07 -2.2283089909985101e-08 0.0000000000000000e+00  -2.7208753820205596e-07 -5.2841259089429788e-09 0.0000000000000000e+00  -2.8603998096030446e-07 1.3091195008831972e-08 0.0000000000000000e+00  -3.0030673325035999e-07 3.2255339162808572e-08 0.0000000000000000e+00  -3.1541484890489504e-07 5.1883415561248582e-08 0.0000000000000000e+00  -3.3180099877595668e-07 7.1779223225332455e-08 0.0000000000000000e+00  -3.4983778693305997e-07 9.1714374116762555e-08 0.0000000000000000e+00  -3.6982081242663752e-07 1.1124275199071207e-07 0.0000000000000000e+00  -3.9189647222117245e-07 1.2953213884926935e-07 0.0000000000000000e+00  -4.1591867090789875e-07 1.4528560489916525e-07 0.0000000000000000e+00  -4.4128803702485711e-07 1.5682233751124236e-07 0.0000000000000000e+00  -4.6684744611068336e-07 1.6234086636173029e-07 0.0000000000000000e+00  -4.9092171870872574e-07 1.6030526622314198e-07 0.0000000000000000e+00  -5.1152085047054631e-07 1.4982436881751434e-07 0.0000000000000000e+00  -5.2669186232792859e-07 1.3088248416117494e-07 0.0000000000000000e+00  -5.3485003571283664e-07 1.0434426027051498e-07 0.0000000000000000e+00  -5.3509244419159460e-07 7.1743536444630790e-08 0.0000000000000000e+00  -5.2717653194374738e-07 3.4963858038009355e-08 0.0000000000000000e+00  -5.1167305835156558e-07 -4.1113654044606155e-09 0.0000000000000000e+00  -4.8932804261606643e-07 -4.3801770676516457e-08 0.0000000000000000e+00  -4.6180135742419322e-07 -8.2849123569105488e-08 0.0000000000000000e+00  -4.2958419736464572e-07 -1.2020185415126024e-07 0.0000000000000000e+00  -3.9579134630954103e-07 -1.5541717749984134e-07 0.0000000000000000e+00  -3.5819824838386465e-07 -1.8747386775707270e-07 0.0000000000000000e+00  -3.2533002222387969e-07 -2.1692726746629612e-07 0.0000000000000000e+00  -2.8392012044970184e-07 -2.4083732288094227e-07 0.0000000000000000e+00  -2.6475093791178766e-07 -2.6318942796185515e-07 0.0000000000000000e+00  -2.1012177409030910e-07 -2.7258025228982655e-07 0.0000000000000000e+00  -2.3965700329929708e-07 -2.8894235932871573e-07 0.0000000000000000e+00  -1.1915500412674265e-07 -2.6692056810946266e-07 0.0000000000000000e+00  -3.1598270487428609e-07 -2.9623772778924214e-07 0.0000000000000000e+00  8.4234849436395776e-08 -1.9699018928190306e-07 0.0000000000000000e+00  -7.2870467538250263e-07 -3.4003075065872628e-07 0.0000000000000000e+00  6.5827538967246051e-07 -1.2469795797673149e-08 0.0000000000000000e+00  -2.7002498595552586e-06 -5.9415532220109197e-07 0.0000000000000000e+00  2.4867923400758148e-06 9.3629064418804617e-07 0.0000000000000000e+00  0.0000000000000000e+00 0.0000000000000000e+00 0.0000000000000000e+00  0.0000000000000000e+00 0.0000000000000000e+00 0.0000000000000000e+00  -2.7517494110222097e-06 1.0309784777657435e-06 0.0000000000000000e+00  2.5804384348999070e-06 -1.6331021819690686e-07 0.0000000000000000e+00  -8.3017056770818537e-07 3.3491389830132316e-07 0.0000000000000000e+00  4.9225016185044975e-07 3.7038649872396544e-08 0.0000000000000000e+00  -1.9441678357794548e-07 1.1611478105679065e-07 0.0000000000000000e+00  2.1908156089946184e-08 2.0512399982910826e-08 0.0000000000000000e+00  -9.2394677892415259e-08 8.6530976987799478e-09 0.0000000000000000e+00  -1.0924474703381814e-07 -1.7993038751056415e-08 0.0000000000000000e+00  -1.4238995527152021e-07 -2.4458294987114430e-08 0.0000000000000000e+00  -1.7216739523738658e-07 -2.4375397240737079e-08 0.0000000000000000e+00  -1.9621646005141256e-07 -1.6825872663000872e-08 0.0000000000000000e+00  -2.1842198473836393e-07 -4.5367249750204495e-09 0.0000000000000000e+00  -2.3820518857443191e-07 1.1039923612117865e-08 0.0000000000000000e+00  -2.5655933210875593e-07 2.8745143102208739e-08 0.0000000000000000e+00  -2.7408039603150484e-07 4.7797665560132364e-08 0.0000000000000000e+00  -2.9121062304971317e-07 6.7753444684254623e-08 0.0000000000000000e+00  -3.0839549832485239e-07 8.8362408292234525e-08 0.0000000000000000e+00  -3.2605775288392843e-07 1.0939221556147490e-07 0.0000000000000000e+00  -3.4462486484754560e-07 1.3037212875669787e-07 0.0000000000000000e+00  -3.6443532662040032e-07 1.5032895314866184e-07 0.0000000000000000e+00  -3.8553960313594311e-07 1.6762566341920083e-07 0.0000000000000000e+00  -4.0745202035172364e-07 1.8003740559744497e-07 0.0000000000000000e+00  -4.2897015633920725e-07 1.8512950179094278e-07 0.0000000000000000e+00  -4.4821190001132941e-07 1.8085036967944017e-07 0.0000000000000000e+00  -4.6291807394324669e-07 1.6611462981721131e-07 0.0000000000000000e+00  -4.7097473745222022e-07 1.4113035715494839e-07 0.0000000000000000e+00  -4.7089547117072621e-07 1.0734854025315012e-07 0.0000000000000000e+00  -4.6219778827325417e-07 6.7081428923406131e-08 0.0000000000000000e+00  -4.4531262591340910e-07 2.2982603582122649e-08 0.0000000000000000e+00  -4.2161883755657641e-07 -2.2455954850886667e-08 0.0000000000000000e+00  -3.9262130326833452e-07 -6.7173058537726268e-08 0.0000000000000000e+00  -3.6065039159922179e-07 -1.0974599965051807e-07 0.0000000000000000e+00  -3.2659448678480899e-07 -1.4911419931894081e-07 0.0000000000000000e+00  -2.9393772029870081e-07 -1.8490535029496768e-0