<?xml version="1.0"?>
<VTKFile type="UnstructuredGrid"  version="0.1"  >
<UnstructuredGrid>
<Piece  NumberOfPoints="1617" NumberOfCells="3072">
<Points>
<DataArray  type="Float64"  NumberOfComponents="3"  format="ascii">0 0 0  0.03125 0 0  0.0625 0 0  0.09375 0 0  0.125 0 0  0.15625 0 0  0.1875 0 0  0.21875 0 0  0.25 0 0  0.28125 0 0  0.3125 0 0  0.34375 0 0  0.375 0 0  0.40625 0 0  0.4375 0 0  0.46875 0 0  0.5 0 0  0.53125 0 0  0.5625 0 0  0.59375 0 0  0.625 0 0  0.65625 0 0  0.6875 0 0  0.71875 0 0  0.75 0 0  0.78125 0 0  0.8125 0 0  0.84375 0 0  0.875 0 0  0.90625 0 0  0.9375 0 0  0.96875 0 0  1 0 0  1.03125 0 0  1.0625 0 0  1.09375 0 0  1.125 0 0  1.15625 0 0  1.1875 0 0  1.21875 0 0  1.25 0 0  1.28125 0 0  1.3125 0 0  1.34375 0 0  1.375 0 0  1.40625 0 0  1.4375 0 0  1.46875 0 0  1.5 0 0  0 0.03125 0  0.03125 0.03125 0  0.0625 0.03125 0  0.09375 0.03125 0  0.125 0.03125 0  0.15625 0.03125 0  0.1875 0.03125 0  0.21875 0.03125 0  0.25 0.03125 0  0.28125 0.03125 0  0.3125 0.03125 0  0.34375 0.03125 0  0.375 0.03125 0  0.40625 0.03125 0  0.4375 0.03125 0  0.46875 0.03125 0  0.5 0.03125 0  0.53125 0.03125 0  0.5625 0.03125 0  0.59375 0.03125 0  0.625 0.03125 0  0.65625 0.03125 0  0.6875 0.03125 0  0.71875 0.03125 0  0.75 0.03125 0  0.78125 0.03125 0  0.8125 0.03125 0  0.84375 0.03125 0  0.875 0.03125 0  0.90625 0.03125 0  0.9375 0.03125 0  0.96875 0.03125 0  1 0.03125 0  1.03125 0.03125 0  1.0625 0.03125 0  1.09375 0.03125 0  1.125 0.03125 0  1.15625 0.03125 0  1.1875 0.03125 0  1.21875 0.03125 0  1.25 0.03125 0  1.28125 0.03125 0  1.3125 0.03125 0  1.34375 0.03125 0  1.375 0.03125 0  1.40625 0.03125 0  1.4375 0.03125 0  1.46875 0.03125 0  1.5 0.03125 0  0 0.0625 0  0.03125 0.0625 0  0.0625 0.0625 0  0.09375 0.0625 0  0.125 0.0625 0  0.15625 0.0625 0  0.1875 0.0625 0  0.21875 0.0625 0  0.25 0.0625 0  0.28125 0.0625 0  0.3125 0.0625 0  0.34375 0.0625 0  0.375 0.0625 0  0.40625 0.0625 0  0.4375 0.0625 0  0.46875 0.0625 0  0.5 0.0625 0  0.53125 0.0625 0  0.5625 0.0625 0  0.59375 0.0625 0  0.625 0.0625 0  0.65625 0.0625 0  0.6875 0.0625 0  0.71875 0.0625 0  0.75 0.0625 0  0.78125 0.0625 0  0.8125 0.0625 0  0.84375 0.0625 0  0.875 0.0625 0  0.90625 0.0625 0  0.9375 0.0625 0  0.96875 0.0625 0  1 0.0625 0  1.03125 0.0625 0  1.0625 0.0625 0  1.09375 0.0625 0  1.125 0.0625 0  1.15625 0.0625 0  1.1875 0.0625 0  1.21875 0.0625 0  1.25 0.0625 0  1.28125 0.0625 0  1.3125 0.0625 0  1.34375 0.0625 0  1.375 0.0625 0  1.40625 0.0625 0  1.4375 0.0625 0  1.46875 0.0625 0  1.5 0.0625 0  0 0.09375 0  0.03125 0.09375 0  0.0625 0.09375 0  0.09375 0.09375 0  0.125 0.09375 0  0.15625 0.09375 0  0.1875 0.09375 0  0.21875 0.09375 0  0.25 0.09375 0  0.28125 0.09375 0  0.3125 0.09375 0  0.34375 0.09375 0  0.375 0.09375 0  0.40625 0.09375 0  0.4375 0.09375 0  0.46875 0.09375 0  0.5 0.09375 0  0.53125 0.09375 0  0.5625 0.09375 0  0.59375 0.09375 0  0.625 0.09375 0  0.65625 0.09375 0  0.6875 0.09375 0  0.71875 0.09375 0  0.75 0.09375 0  0.78125 0.09375 0  0.8125 0.09375 0  0.84375 0.09375 0  0.875 0.09375 0  0.90625 0.09375 0  0.9375 0.09375 0  0.96875 0.09375 0  1 0.09375 0  1.03125 0.09375 0  1.0625 0.09375 0  1.09375 0.09375 0  1.125 0.09375 0  1.15625 0.09375 0  1.1875 0.09375 0  1.21875 0.09375 0  1.25 0.09375 0  1.28125 0.09375 0  1.3125 0.09375 0  1.34375 0.09375 0  1.375 0.09375 0  1.40625 0.09375 0  1.4375 0.09375 0  1.46875 0.09375 0  1.5 0.09375 0  0 0.125 0  0.03125 0.125 0  0.0625 0.125 0  0.09375 0.125 0  0.125 0.125 0  0.15625 0.125 0  0.1875 0.125 0  0.21875 0.125 0  0.25 0.125 0  0.28125 0.125 0  0.3125 0.125 0  0.34375 0.125 0  0.375 0.125 0  0.40625 0.125 0  0.4375 0.125 0  0.46875 0.125 0  0.5 0.125 0  0.53125 0.125 0  0.5625 0.125 0  0.59375 0.125 0  0.625 0.125 0  0.65625 0.125 0  0.6875 0.125 0  0.71875 0.125 0  0.75 0.125 0  0.78125 0.125 0  0.8125 0.125 0  0.84375 0.125 0  0.875 0.125 0  0.90625 0.125 0  0.9375 0.125 0  0.96875 0.125 0  1 0.125 0  1.03125 0.125 0  1.0625 0.125 0  1.09375 0.125 0  1.125 0.125 0  1.15625 0.125 0  1.1875 0.125 0  1.21875 0.125 0  1.25 0.125 0  1.28125 0.125 0  1.3125 0.125 0  1.34375 0.125 0  1.375 0.125 0  1.40625 0.125 0  1.4375 0.125 0  1.46875 0.125 0  1.5 0.125 0  0 0.15625 0  0.03125 0.15625 0  0.0625 0.15625 0  0.09375 0.15625 0  0.125 0.15625 0  0.15625 0.15625 0  0.1875 0.15625 0  0.21875 0.15625 0  0.25 0.15625 0  0.28125 0.15625 0  0.3125 0.15625 0  0.34375 0.15625 0  0.375 0.15625 0  0.40625 0.15625 0  0.4375 0.15625 0  0.46875 0.15625 0  0.5 0.15625 0  0.53125 0.15625 0  0.5625 0.15625 0  0.59375 0.15625 0  0.625 0.15625 0  0.65625 0.15625 0  0.6875 0.15625 0  0.71875 0.15625 0  0.75 0.15625 0  0.78125 0.15625 0  0.8125 0.15625 0  0.84375 0.15625 0  0.875 0.15625 0  0.90625 0.15625 0  0.9375 0.15625 0  0.96875 0.15625 0  1 0.15625 0  1.03125 0.15625 0  1.0625 0.15625 0  1.09375 0.15625 0  1.125 0.15625 0  1.15625 0.15625 0  1.1875 0.15625 0  1.21875 0.15625 0  1.25 0.15625 0  1.28125 0.15625 0  1.3125 0.15625 0  1.34375 0.15625 0  1.375 0.15625 0  1.40625 0.15625 0  1.4375 0.15625 0  1.46875 0.15625 0  1.5 0.15625 0  0 0.1875 0  0.03125 0.1875 0  0.0625 0.1875 0  0.09375 0.1875 0  0.125 0.1875 0  0.15625 0.1875 0  0.1875 0.1875 0  0.21875 0.1875 0  0.25 0.1875 0  0.28125 0.1875 0  0.3125 0.1875 0  0.34375 0.1875 0  0.375 0.1875 0  0.40625 0.1875 0  0.4375 0.1875 0  0.46875 0.1875 0  0.5 0.1875 0  0.53125 0.1875 0  0.5625 0.1875 0  0.59375 0.1875 0  0.625 0.1875 0  0.65625 0.1875 0  0.6875 0.1875 0  0.71875 0.1875 0  0.75 0.1875 0  0.78125 0.1875 0  0.8125 0.1875 0  0.84375 0.1875 0  0.875 0.1875 0  0.90625 0.1875 0  0.9375 0.1875 0  0.96875 0.1875 0  1 0.1875 0  1.03125 0.1875 0  1.0625 0.1875 0  1.09375 0.1875 0  1.125 0.1875 0  1.15625 0.1875 0  1.1875 0.1875 0  1.21875 0.1875 0  1.25 0.1875 0  1.28125 0.1875 0  1.3125 0.1875 0  1.34375 0.1875 0  1.375 0.1875 0  1.40625 0.1875 0  1.4375 0.1875 0  1.46875 0.1875 0  1.5 0.1875 0  0 0.21875 0  0.03125 0.21875 0  0.0625 0.21875 0  0.09375 0.21875 0  0.125 0.21875 0  0.15625 0.21875 0  0.1875 0.21875 0  0.21875 0.21875 0  0.25 0.21875 0  0.28125 0.21875 0  0.3125 0.21875 0  0.34375 0.21875 0  0.375 0.21875 0  0.40625 0.21875 0  0.4375 0.21875 0  0.46875 0.21875 0  0.5 0.21875 0  0.53125 0.21875 0  0.5625 0.21875 0  0.59375 0.21875 0  0.625 0.21875 0  0.65625 0.21875 0  0.6875 0.21875 0  0.71875 0.21875 0  0.75 0.21875 0  0.78125 0.21875 0  0.8125 0.21875 0  0.84375 0.21875 0  0.875 0.21875 0  0.90625 0.21875 0  0.9375 0.21875 0  0.96875 0.21875 0  1 0.21875 0  1.03125 0.21875 0  1.0625 0.21875 0  1.09375 0.21875 0  1.125 0.21875 0  1.15625 0.21875 0  1.1875 0.21875 0  1.21875 0.21875 0  1.25 0.21875 0  1.28125 0.21875 0  1.3125 0.21875 0  1.34375 0.21875 0  1.375 0.21875 0  1.40625 0.21875 0  1.4375 0.21875 0  1.46875 0.21875 0  1.5 0.21875 0  0 0.25 0  0.03125 0.25 0  0.0625 0.25 0  0.09375 0.25 0  0.125 0.25 0  0.15625 0.25 0  0.1875 0.25 0  0.21875 0.25 0  0.25 0.25 0  0.28125 0.25 0  0.3125 0.25 0  0.34375 0.25 0  0.375 0.25 0  0.40625 0.25 0  0.4375 0.25 0  0.46875 0.25 0  0.5 0.25 0  0.53125 0.25 0  0.5625 0.25 0  0.59375 0.25 0  0.625 0.25 0  0.65625 0.25 0  0.6875 0.25 0  0.71875 0.25 0  0.75 0.25 0  0.78125 0.25 0  0.8125 0.25 0  0.84375 0.25 0  0.875 0.25 0  0.90625 0.25 0  0.9375 0.25 0  0.96875 0.25 0  1 0.25 0  1.03125 0.25 0  1.0625 0.25 0  1.09375 0.25 0  1.125 0.25 0  1.15625 0.25 0  1.1875 0.25 0  1.21875 0.25 0  1.25 0.25 0  1.28125 0.25 0  1.3125 0.25 0  1.34375 0.25 0  1.375 0.25 0  1.40625 0.25 0  1.4375 0.25 0  1.46875 0.25 0  1.5 0.25 0  0 0.28125 0  0.03125 0.28125 0  0.0625 0.28125 0  0.09375 0.28125 0  0.125 0.28125 0  0.15625 0.28125 0  0.1875 0.28125 0  0.21875 0.28125 0  0.25 0.28125 0  0.28125 0.28125 0  0.3125 0.28125 0  0.34375 0.28125 0  0.375 0.28125 0  0.40625 0.28125 0  0.4375 0.28125 0  0.46875 0.28125 0  0.5 0.28125 0  0.53125 0.28125 0  0.5625 0.28125 0  0.59375 0.28125 0  0.625 0.28125 0  0.65625 0.28125 0  0.6875 0.28125 0  0.71875 0.28125 0  0.75 0.28125 0  0.78125 0.28125 0  0.8125 0.28125 0  0.84375 0.28125 0  0.875 0.28125 0  0.90625 0.28125 0  0.9375 0.28125 0  0.96875 0.28125 0  1 0.28125 0  1.03125 0.28125 0  1.0625 0.28125 0  1.09375 0.28125 0  1.125 0.28125 0  1.15625 0.28125 0  1.1875 0.28125 0  1.21875 0.28125 0  1.25 0.28125 0  1.28125 0.28125 0  1.3125 0.28125 0  1.34375 0.28125 0  1.375 0.28125 0  1.40625 0.28125 0  1.4375 0.28125 0  1.46875 0.28125 0  1.5 0.28125 0  0 0.3125 0  0.03125 0.3125 0  0.0625 0.3125 0  0.09375 0.3125 0  0.125 0.3125 0  0.15625 0.3125 0  0.1875 0.3125 0  0.21875 0.3125 0  0.25 0.3125 0  0.28125 0.3125 0  0.3125 0.3125 0  0.34375 0.3125 0  0.375 0.3125 0  0.40625 0.3125 0  0.4375 0.3125 0  0.46875 0.3125 0  0.5 0.3125 0  0.53125 0.3125 0  0.5625 0.3125 0  0.59375 0.3125 0  0.625 0.3125 0  0.65625 0.3125 0  0.6875 0.3125 0  0.71875 0.3125 0  0.75 0.3125 0  0.78125 0.3125 0  0.8125 0.3125 0  0.84375 0.3125 0  0.875 0.3125 0  0.90625 0.3125 0  0.9375 0.3125 0  0.96875 0.3125 0  1 0.3125 0  1.03125 0.3125 0  1.0625 0.3125 0  1.09375 0.3125 0  1.125 0.3125 0  1.15625 0.3125 0  1.1875 0.3125 0  1.21875 0.3125 0  1.25 0.3125 0  1.28125 0.3125 0  1.3125 0.3125 0  1.34375 0.3125 0  1.375 0.3125 0  1.40625 0.3125 0  1.4375 0.3125 0  1.46875 0.3125 0  1.5 0.3125 0  0 0.34375 0  0.03125 0.34375 0  0.0625 0.34375 0  0.09375 0.34375 0  0.125 0.34375 0  0.15625 0.34375 0  0.1875 0.34375 0  0.21875 0.34375 0  0.25 0.34375 0  0.28125 0.34375 0  0.3125 0.34375 0  0.34375 0.34375 0  0.375 0.34375 0  0.40625 0.34375 0  0.4375 0.34375 0  0.46875 0.34375 0  0.5 0.34375 0  0.53125 0.34375 0  0.5625 0.34375 0  0.59375 0.34375 0  0.625 0.34375 0  0.65625 0.34375 0  0.6875 0.34375 0  0.71875 0.34375 0  0.75 0.34375 0  0.78125 0.34375 0  0.8125 0.34375 0  0.84375 0.34375 0  0.875 0.34375 0  0.90625 0.34375 0  0.9375 0.34375 0  0.96875 0.34375 0  1 0.34375 0  1.03125 0.34375 0  1.0625 0.34375 0  1.09375 0.34375 0  1.125 0.34375 0  1.15625 0.34375 0  1.1875 0.34375 0  1.21875 0.34375 0  1.25 0.34375 0  1.28125 0.34375 0  1.3125 0.34375 0  1.34375 0.34375 0  1.375 0.34375 0  1
[...]
<PointData  Vectors="f_17"> 
<DataArray  type="Float64"  Name="f_17"  NumberOfComponents="3" format="ascii">0.0000000000000000e+00 0.0000000000000000e+00 0.0000000000000000e+00  0.0000000000000000e+00 0.0000000000000000e+00 0.0000000000000000e+00  0.0000000000000000e+00 0.0000000000000000e+00 0.0000000000000000e+00  0.0000000000000000e+00 0.0000000000000000e+00 0.0000000000000000e+00  0.0000000000000000e+00 0.0000000000000000e+00 0.0000000000000000e+00  0.0000000000000000e+00 0.0000000000000000e+00 0.0000000000000000e+00  0.0000000000000000e+00 0.0000000000000000e+00 0.0000000000000000e+00  0.0000000000000000e+00 0.0000000000000000e+00 0.0000000000000000e+00  0.0000000000000000e+00 0.0000000000000000e+00 0.0000000000000000e+00  0.0000000000000000e+00 0.0000000000000000e+00 0.0000000000000000e+00  0.0000000000000000e+00 0.0000000000000000e+00 0.0000000000000000e+00  0.0000000000000000e+00 0.0000000000000000e+00 0.0000000000000000e+00  0.0000000000000000e+00 0.0000000000000000e+00 0.0000000000000000e+00  0.0000000000000000e+00 0.0000000000000000e+00 0.0000000000000000e+00  0.0000000000000000e+00 0.0000000000000000e+00 0.0000000000000000e+00  0.0000000000000000e+00 0.0000000000000000e+00 0.0000000000000000e+00  0.0000000000000000e+00 0.0000000000000000e+00 0.0000000000000000e+00  0.0000000000000000e+00 0.0000000000000000e+00 0.0000000000000000e+00  0.0000000000000000e+00 0.0000000000000000e+00 0.0000000000000000e+00  0.0000000000000000e+00 0.0000000000000000e+00 0.0000000000000000e+00  0.0000000000000000e+00 0.0000000000000000e+00 0.0000000000000000e+00  0.0000000000000000e+00 0.0000000000000000e+00 0.0000000000000000e+00  0.0000000000000000e+00 0.0000000000000000e+00 0.0000000000000000e+00  0.0000000000000000e+00 0.0000000000000000e+00 0.0000000000000000e+00  0.0000000000000000e+00 0.0000000000000000e+00 0.0000000000000000e+00  0.0000000000000000e+00 0.0000000000000000e+00 0.0000000000000000e+00  0.0000000000000000e+00 0.0000000000000000e+00 0.0000000000000000e+00  0.0000000000000000e+00 0.0000000000000000e+00 0.0000000000000000e+00  0.0000000000000000e+00 0.0000000000000000e+00 0.0000000000000000e+00  0.0000000000000000e+00 0.0000000000000000e+00 0.0000000000000000e+00  0.0000000000000000e+00 0.0000000000000000e+00 0.0000000000000000e+00  0.0000000000000000e+00 0.0000000000000000e+00 0.0000000000000000e+00  0.0000000000000000e+00 0.0000000000000000e+00 0.0000000000000000e+00  0.0000000000000000e+00 0.0000000000000000e+00 0.0000000000000000e+00  0.0000000000000000e+00 0.0000000000000000e+00 0.0000000000000000e+00  0.0000000000000000e+00 0.0000000000000000e+00 0.0000000000000000e+00  0.0000000000000000e+00 0.0000000000000000e+00 0.0000000000000000e+00  0.0000000000000000e+00 0.0000000000000000e+00 0.0000000000000000e+00  0.0000000000000000e+00 0.0000000000000000e+00 0.0000000000000000e+00  0.0000000000000000e+00 0.0000000000000000e+00 0.0000000000000000e+00  0.0000000000000000e+00 0.0000000000000000e+00 0.0000000000000000e+00  0.0000000000000000e+00 0.0000000000000000e+00 0.0000000000000000e+00  0.0000000000000000e+00 0.0000000000000000e+00 0.0000000000000000e+00  0.0000000000000000e+00 0.0000000000000000e+00 0.0000000000000000e+00  0.0000000000000000e+00 0.0000000000000000e+00 0.0000000000000000e+00  0.0000000000000000e+00 0.0000000000000000e+00 0.0000000000000000e+00  0.0000000000000000e+00 0.0000000000000000e+00 0.0000000000000000e+00  0.0000000000000000e+00 0.0000000000000000e+00 0.0000000000000000e+00  0.0000000000000000e+00 0.0000000000000000e+00 0.0000000000000000e+00  0.0000000000000000e+00 0.0000000000000000e+00 0.0000000000000000e+00  -6.7463914605752575e-08 -2.1309389754619592e-08 0.0000000000000000e+00  -1.4142136456321111e-07 1.1882373208755360e-07 0.0000000000000000e+00  -6.6610835852885942e-08 6.7161153745715266e-09 0.0000000000000000e+00  -2.7054627170183003e-07 -2.8472717759250749e-08 0.0000000000000000e+00  -2.6950594024676592e-07 -5.6853075843113025e-08 0.0000000000000000e+00  -2.7195750534281817e-07 -6.4209957204927585e-08 0.0000000000000000e+00  -2.7666525265637222e-07 -5.9248959917049247e-08 0.0000000000000000e+00  -2.6908289591085004e-07 -5.1457183281455566e-08 0.0000000000000000e+00  -2.6135791520969869e-07 -4.2285999679738694e-08 0.0000000000000000e+00  -2.5396096218476248e-07 -3.2927236754216033e-08 0.0000000000000000e+00  -2.4842752529270370e-07 -2.3840794822239941e-08 0.0000000000000000e+00  -2.4619339353602869e-07 -1.5139261749393786e-08 0.0000000000000000e+00  -2.4785513121859127e-07 -6.8709856798728738e-09 0.0000000000000000e+00  -2.5387031901877488e-07 9.8561519644072565e-10 0.0000000000000000e+00  -2.6452190129346817e-07 8.4881375221160307e-09 0.0000000000000000e+00  -2.7998718471958796e-07 1.5701356923710331e-08 0.0000000000000000e+00  -3.0038471827501790e-07 2.2666133710939087e-08 0.0000000000000000e+00  -3.2576291941295670e-07 2.9363463014472231e-08 0.0000000000000000e+00  -3.5605993232661473e-07 3.5681168456167609e-08 0.0000000000000000e+00  -3.9103245534076208e-07 4.1393518221898265e-08 0.0000000000000000e+00  -4.3016900882003858e-07 4.6164713523237538e-08 0.0000000000000000e+00  -4.7261353151959610e-07 4.9583168484219535e-08 0.0000000000000000e+00  -5.1712438386747654e-07 5.1224316719211557e-08 0.0000000000000000e+00  -5.6209660650303641e-07 5.0728725473751039e-08 0.0000000000000000e+00  -6.0564507289728751e-07 4.7874840284408655e-08 0.0000000000000000e+00  -6.4575790794003336e-07 4.2624810793040895e-08 0.0000000000000000e+00  -6.8044755797558196e-07 3.5132784910905953e-08 0.0000000000000000e+00  -7.0795279471744062e-07 2.5710447358928521e-08 0.0000000000000000e+00  -7.2677482064516721e-07 1.4775568941541064e-08 0.0000000000000000e+00  -7.3591362251853958e-07 2.7674108355128269e-09 0.0000000000000000e+00  -7.3451081990824123e-07 -9.8725613074343247e-09 0.0000000000000000e+00  -7.2255738636276957e-07 -2.2834658962723327e-08 0.0000000000000000e+00  -6.9927630264900726e-07 -3.5742947983823048e-08 0.0000000000000000e+00  -6.6626969350154244e-07 -4.8639058919305863e-08 0.0000000000000000e+00  -6.2079936386435548e-07 -6.0861622826547427e-08 0.0000000000000000e+00  -5.6952799323325902e-07 -7.3463228063941717e-08 0.0000000000000000e+00  -5.0007162965678107e-07 -8.3742567071084039e-08 0.0000000000000000e+00  -4.3958043681798577e-07 -9.7086672012327614e-08 0.0000000000000000e+00  -3.3456462075026073e-07 -1.0098683560385455e-07 0.0000000000000000e+00  -2.9680300577761426e-07 -1.2082695833565322e-07 0.0000000000000000e+00  -1.0306967759182892e-07 -1.0007024744778565e-07 0.0000000000000000e+00  -2.0846498701868177e-07 -1.5320218124120237e-07 0.0000000000000000e+00  2.8915790919759835e-07 -3.4664667724651486e-08 0.0000000000000000e+00  -4.3975670831349302e-07 -2.4087993684238729e-07 0.0000000000000000e+00  1.1216144821840368e-06 2.2999558113214932e-07 0.0000000000000000e+00  -2.4820020223338339e-06 -7.5929566680483973e-07 0.0000000000000000e+00  2.9252904474531503e-06 1.3378365398050474e-06 0.0000000000000000e+00  0.0000000000000000e+00 0.0000000000000000e+00 0.0000000000000000e+00  0.0000000000000000e+00 0.0000000000000000e+00 0.0000000000000000e+00  -1.4531692253230782e-06 6.3014138110633925e-07 0.0000000000000000e+00  7.7831021883945225e-07 -2.0489036178923363e-08 0.0000000000000000e+00  -1.0546207424542930e-07 1.2821487628991695e-07 0.0000000000000000e+00  -2.7228577035782247e-07 1.5441597048713911e-08 0.0000000000000000e+00  -2.9422036407990156e-07 -3.6116954228933733e-08 0.0000000000000000e+00  -3.6456423401100421e-07 -6.1031053941237112e-08 0.0000000000000000e+00  -3.7625810043789957e-07 -6.9321045149266747e-08 0.0000000000000000e+00  -3.7753437743566797e-07 -6.8140229734116901e-08 0.0000000000000000e+00  -3.7383807620450703e-07 -6.1172400220554206e-08 0.0000000000000000e+00  -3.6648267933407632e-07 -5.0947363743459485e-08 0.0000000000000000e+00  -3.6021632039515365e-07 -3.8814726569274154e-08 0.0000000000000000e+00  -3.5642337427939860e-07 -2.5644184018110805e-08 0.0000000000000000e+00  -3.5622494137030208e-07 -1.1991751250103983e-08 0.0000000000000000e+00  -3.6037367996772338e-07 1.8211790881259764e-09 0.0000000000000000e+00  -3.6926895349282969e-07 1.5626372728790685e-08 0.0000000000000000e+00  -3.8316584051999946e-07 2.9339857623320158e-08 0.0000000000000000e+00  -4.0220321168952404e-07 4.2888717140579233e-08 0.0000000000000000e+00  -4.2642104609097421e-07 5.6129398504898473e-08 0.0000000000000000e+00  -4.5573134819191293e-07 6.8769229132720834e-08 0.0000000000000000e+00  -4.8984369204798976e-07 8.0310961568296971e-08 0.0000000000000000e+00  -5.2816633316597614e-07 9.0044584548833552e-08 0.0000000000000000e+00  -5.6971330367733763e-07 9.7104698242294620e-08 0.0000000000000000e+00  -6.1305374861454849e-07 1.0059272794187363e-07 0.0000000000000000e+00  -6.5634308063962218e-07 9.9738226709120726e-08 0.0000000000000000e+00  -6.9743623725750060e-07 9.4054518112637663e-08 0.0000000000000000e+00  -7.3408994414213513e-07 8.3440691329534505e-08 0.0000000000000000e+00  -7.6416077917737172e-07 6.8202397103337042e-08 0.0000000000000000e+00  -7.8584790836571314e-07 4.8984576102900139e-08 0.0000000000000000e+00  -7.9773114090816669e-07 2.6656609520861351e-08 0.0000000000000000e+00  -7.9901187285699932e-07 2.1532966198662700e-09 0.0000000000000000e+00  -7.8909398002021388e-07 -2.3606935623300202e-08 0.0000000000000000e+00  -7.6831870514554408e-07 -4.9897972350989561e-08 0.0000000000000000e+00  -7.3621213281588967e-07 -7.6002602591886938e-08 0.0000000000000000e+00  -6.9481441603351846e-07 -1.0167972470552054e-07 0.0000000000000000e+00  -6.4162226451227050e-07 -1.2604782757027105e-07 0.0000000000000000e+00  -5.8392658102976654e-07 -1.4986689427961207e-07 0.0000000000000000e+00  -5.0944256997915017e-07 -1.7030423540226917e-07 0.0000000000000000e+00  -4.4639212874774582e-07 -1.9199301576473739e-07 0.0000000000000000e+00  -3.4131177541151127e-07 -2.0285793341536219e-07 0.0000000000000000e+00  -3.0741166658786244e-07 -2.2534103820455717e-07 0.0000000000000000e+00  -1.2272006009947326e-07 -2.0727104375186787e-07 0.0000000000000000e+00  -2.4140162364602069e-07 -2.5084142016874903e-07 0.0000000000000000e+00  2.2739186521672891e-07 -1.3627473704200976e-07 0.0000000000000000e+00  -5.1997799461961043e-07 -3.0880851932511814e-07 0.0000000000000000e+00  9.3051771231401407e-07 1.2274761554147787e-07 0.0000000000000000e+00  -2.4989437562731908e-06 -6.4482632137035026e-07 0.0000000000000000e+00  2.8536101718647315e-06 1.3392774607093668e-06 0.0000000000000000e+00  0.0000000000000000e+00 0.0000000000000000e+00 0.0000000000000000e+00  0.0000000000000000e+00 0.0000000000000000e+00 0.0000000000000000e+00  -2.5454618717708469e-06 1.1032283800175405e-06 0.0000000000000000e+00  1.7234511810804867e-06 -1.2320310802019537e-07 0.0000000000000000e+00  -3.8745393389476560e-07 2.8627810675535175e-07 0.0000000000000000e+00  3.9572385697093212e-09 4.2052421534591971e-08 0.0000000000000000e+00  -1.4614954298017459e-07 1.5435206662472980e-08 0.0000000000000000e+00  -2.1332261582898484e-07 -3.6980838434349238e-08 0.0000000000000000e+00  -2.4030977250691421e-07 -5.7451847325028953e-08 0.0000000000000000e+00  -2.7770333136536329e-07 -6.4231016985893735e-08 0.0000000000000000e+00  -2.9942274888549574e-07 -6.1199834865424797e-08 0.0000000000000000e+00  -3.1576665266834802e-07 -5.1852045057947428e-08 0.0000000000000000e+00  -3.2904053332025677e-07 -3.8617721806307381e-08 0.0000000000000000e+00  -3.4052572330278658e-07 -2.3048363152891302e-08 0.0000000000000000e+00  -3.5213793094800757e-07 -6.1778614857226323e-09 0.0000000000000000e+00  -3.6488830860346045e-07 1.1350949859311165e-08 0.0000000000000000e+00  -3.7955578911896622e-07 2.9164034294586071e-08 0.0000000000000000e+00  -3.9670417834913064e-07 4.7055531004608171e-08 0.0000000000000000e+00  -4.1672475793987971e-07 6.4878756903575755e-08 0.0000000000000000e+00  -4.3989150173782366e-07 8.2419871879499629e-08 0.0000000000000000e+00  -4.6633857346443059e-07 9.9269105050540323e-08 0.0000000000000000e+00  -4.9599147891588931e-07 1.1471874467200387e-07 0.0000000000000000e+00  -5.2845720086890531e-07 1.2773171846732669e-07 0.0000000000000000e+00  -5.6291166971967246e-07 1.3701781742041696e-07 0.0000000000000000e+00  -5.9803651743189420e-07 1.4122310419423440e-07 0.0000000000000000e+00  -6.3206126515581366e-07 1.3919151478853786e-07 0.0000000000000000e+00  -6.6291750237235050e-07 1.3021994137520323e-07 0.0000000000000000e+00  -6.8850352101649778e-07 1.1422148199721267e-07 0.0000000000000000e+00  -7.0693916222228149e-07 9.1747690867730286e-08 0.0000000000000000e+00  -7.1684162356405636e-07 6.3865897702760083e-08 0.0000000000000000e+00  -7.1734803467252602e-07 3.1957054872029158e-08 0.0000000000000000e+00  -7.0832412017074881e-07 -2.5334094865494722e-09 0.0000000000000000e+00  -6.8986462984501444e-07 -3.8241584736287650e-08 0.0000000000000000e+00  -6.6301697578398458e-07 -7.4096721989996107e-08 0.0000000000000000e+00  -6.2791452630700531e-07 -1.0913015378570360e-07 0.0000000000000000e+00  -5.8724370319638077e-07 -1.4293050260448902e-07 0.0000000000000000e+00  -5.3891794642027977e-07 -1.7447310038352722e-07 0.0000000000000000e+00  -4.9092480789364678e-07 -2.0438148957729492e-07 0.0000000000000000e+00  -4.3111119108050755e-07 -2.2966798657845536e-07 0.0000000000000000e+00  -3.8868754216521891e-07 -2.5464419086247707e-07 0.0000000000000000e+00  -3.0982753258548326e-07 -2.6728353477017096e-07 0.0000000000000000e+00  -3.0880635562316244e-07 -2.8883822304194570e-07 0.0000000000000000e+00  -1.6363319843168359e-07 -2.6979845788525738e-07 0.0000000000000000e+00  -3.2450349353428355e-07 -3.0639070258391665e-07 0.0000000000000000e+00  8.7997631562721471e-08 -1.9837629758477992e-07 0.0000000000000000e+00  -6.8866613576318457e-07 -3.5354624620675876e-07 0.0000000000000000e+00  6.8058886258102938e-07 2.4907173520699828e-08 0.0000000000000000e+00  -2.6722003506600019e-06 -6.3129069757053410e-07 0.0000000000000000e+00  2.4943149258893781e-06 1.1042298446721873e-06 0.0000000000000000e+00  0.0000000000000000e+00 0.0000000000000000e+00 0.0000000000000000e+00  0.0000000000000000e+00 0.0000000000000000e+00 0.0000000000000000e+00  -2.8060003929204038e-06 1.1545619031451132e-06 0.0000000000000000e+00  2.3316332066384411e-06 -1.5290133824301720e-07 0.0000000000000000e+00  -6.9883758676814915e-07 3.6492834420355674e-07 0.0000000000000000e+00  2.6703592996420925e-07 5.5428600149381941e-08 0.0000000000000000e+00  -1.6621788896675619e-07 8.9904662965095935e-08 0.0000000000000000e+00  -1.1718184435148142e-07 8.5161420437194142e-09 0.0000000000000000e+00  -1.7294569810542819e-07 -1.3971487944872924e-08 0.0000000000000000e+00  -2.1659967872758065e-07 -3.2630397384712735e-08 0.0000000000000000e+00  -2.4522756728296670e-07 -3.6906118558847025e-08 0.0000000000000000e+00  -2.7289570802959211e-07 -3.2977943890391483e-08 0.0000000000000000e+00  -2.9485498156787120e-07 -2.2997214920807713e-08 0.0000000000000000e+00  -3.1410032938297776e-07 -8.9549896478477329e-09 0.0000000000000000e+00  -3.3191784751191484e-07 7.6762624806185409e-09 0.0000000000000000e+00  -3.4915778749761222e-07 2.5913352368062724e-08 0.0000000000000000e+00  -3.6667541345154557e-07 4.5105930853922499e-08 0.0000000000000000e+00  -3.8503653450357695e-07 6.4863667465761396e-08 0.0000000000000000e+00  -4.0469965699792412e-07 8.4921325140323009e-08 0.0000000000000000e+00  -4.2604080058919407e-07 1.0497568972540961e-07 0.0000000000000000e+00  -4.4933849245370892e-07 1.2449781375632664e-07 0.0000000000000000e+00  -4.7469880584973539e-07 1.4256403480367661e-07 0.0000000000000000e+00  -5.0190915479071434e-07 1.5778020307141154e-07 0.0000000000000000e+00  -5.3027584826668968e-07 1.6837014334466370e-07 0.0000000000000000e+00  -5.5852119087079553e-07 1.7245121450046396e-07 0.0000000000000000e+00  -5.8482979050985259e-07 1.6843532771905623e-07 0.0000000000000000e+00  -6.0706390794569950e-07 1.5542137514418368e-07 0.0000000000000000e+00  -6.2313140292758017e-07 1.3343308271812950e-07 0.0000000000000000e+00  -6.3133362913730935e-07 1.0342205267136333e-07 0.0000000000000000e+00  -6.3069237047283784e-07 6.7046038363877661e-08 0.0000000000000000e+00  -6.2093553480934199e-07 2.6333254627124920e-08 0.0000000000000000e+00  -6.0265054670412137e-07 -1.6684689935386362e-08 0.0000000000000000e+00  -5.7664059899125746e-07 -6.0189821390819755e-08 0.0000000000000000e+00  -5.4465536153477840e-07 -1.0280548813060710e-07 0.0000000000000000e+00  -5.0729790317785925e-07 -1.4338364518692685e-07 0.0000000000000000e+00  -4.6781147518929832e-07 -1.8140494779302956e-07 0.0000000000000000e+00  -4.2410547353171524e-07 -2.1578656000394346e-07 0.0000000000000000e+00  -3.8485050664701145e-07 -2.4703111425122746e-07 0.0000000000000000e+00  -3.3691411698876572e-07 -2.7214922002185259e-07 0.0000000000000000e+00  -3.1123934724408963e-07 -2.9507721517031675e-07 0.0000000000000000e+00  -2.5022164497381510e-07 -3.0436274711935300e-07 0.0000000000000000e+00  -2.7368585007822677e-07 -3.1989736168034794e-07 0.0000000000000000e+00  -1.4736181312638486e-07 -2.9629208992241430e-07 0.0000000000000000e+00  -3.3897595246899983e-07 -3.2327256153652336e-07 0.0000000000000000e+00  6.6365442636626364e-08 -2.2090623105865965e-07 0.0000000000000000e+00  -7.4246650389612552e-07 -3.6007365284371542e-07 0.0000000000000000e+00  6.4933068885555856e-07 -2.7759370870082043e-08 0.0000000000000000e+00  -2.7084263117680171e-06 -6.0387537867395393e-07 0.0000000000000000e+00  2.4852151505899953e-06 9.3342069454923472e-07 0.0000000000000000e+00  0.0000000000000000e+00 0.0000000000000000e+00 0.0000000000000000e+00  0.0000000000000000e+00 0.0000000000000000e+00 0.0000000000000000e+00  -2.7557211680819749e-06 1.0578317633453775e-06 0.0000000000000000e+00  2.5769440079123853e-06 -1.3084855989620789e-07 0.0000000000000000e+00  -8.4026664723579762e-07 3.6796296361682641e-07 0.0000000000000000e+00  4.7869300581320425e-07 6.8986002824203425e-08 0.0000000000000000e+00  -2.1261792023614337e-07 1.4600066058549985e-07 0.0000000000000000e+00  -6.9848709148002588e-10 4.7967594435176609e-08 0.0000000000000000e+00  -1.1947288189662651e-07 3.3545959644433815e-08 0.0000000000000000e+00  -1.4057531945324648e-07 4.5116804331800317e-09 0.0000000000000000e+00  -1.7773531591304421e-07 -4.0232451237748560e-09 0.0000000000000000e+00  -2.1126242806540176e-07 -5.6003779431964620e-09 0.0000000000000000e+00  -2.3881975924325795e-07 7.1556568783848170e-10 0.0000000000000000e+00  -2.6433798154490861e-07 1.2172056749690837e-08 0.0000000000000000e+00  -2.8729216087394289e-07 2.7265145218316220e-08 0.0000000000000000e+00  -3.0872755637519988e-07 4.4769316434583585e-08 0.0000000000000000e+00  -3.2928434056307607e-07 6.3828958776914304e-08 0.0000000000000000e+00  -3.4943730934974585e-07 8.3920526308154109e-08 0.0000000000000000e+00  -3.6965097020697695e-07 1.0470901724092003e-07 0.0000000000000000e+00  -3.9035172634793907e-07 1.2586942056097059e-07 0.0000000000000000e+00  -4.1195314322168467e-07 1.4682765230321400e-07 0.0000000000000000e+00  -4.3475894888987996e-07 1.6649513660252995e-07 0.0000000000000000e+00  -4.5875999713870562e-07 1.8311044231078567e-07 0.0000000000000000e+00  -4.8338296932726299e-07 1.9432508955068724e-07 0.0000000000000000e+00  -5.0731007674802911e-07 1.9759858169554884e-07 0.0000000000000000e+00  -5.2852272338711857e-07 1.9081257777543225e-07 0.0000000000000000e+00  -5.4461808636599786e-07 1.7287318690579332e-07 0.0000000000000000e+00  -5.5335070237792119e-07 1.4404813417333680e-07 0.0000000000000000e+00  -5.5313440919381568e-07 1.0591236192703385e-07 0.0000000000000000e+00  -5.4343327709646336e-07 6.0949463527420057e-08 0.0000000000000000e+00  -5.2467663669022363e-07 1.2007301508781187e-08 0.0000000000000000e+00  -4.9829029850636277e-07 -3.8229477921093651e-08 0.0000000000000000e+00  -4.6586443127553404e-07 -8.7527285214236273e-08 0.0000000000000000e+00  -4.2984128203479101e-07 -1.3432122168610490e-07 0.0000000000000000e+00  -3.9123453148460821e-07 -1.7744038398033308e-07 0.0000000000000000e+00  -3.5366060775513028e-07 -2.1642970010809425e-07 0.000