<?xml version="1.0"?>
<VTKFile type="UnstructuredGrid"  version="0.1"  >
<UnstructuredGrid>
<Piece  NumberOfPoints="1617" NumberOfCells="3072">
<Points>
<DataArray  type="Float64"  NumberOfComponents="3"  format="ascii">0 0 0  0.03125 0 0  0.0625 0 0  0.09375 0 0  0.125 0 0  0.15625 0 0  0.1875 0 0  0.21875 0 0  0.25 0 0  0.28125 0 0  0.3125 0 0  0.34375 0 0  0.375 0 0  0.40625 0 0  0.4375 0 0  0.46875 0 0  0.5 0 0  0.53125 0 0  0.5625 0 0  0.59375 0 0  0.625 0 0  0.65625 0 0  0.6875 0 0  0.71875 0 0  0.75 0 0  0.78125 0 0  0.8125 0 0  0.84375 0 0  0.875 0 0  0.90625 0 0  0.9375 0 0  0.96875 0 0  1 0 0  1.03125 0 0  1.0625 0 0  1.09375 0 0  1.125 0 0  1.15625 0 0  1.1875 0 0  1.21875 0 0  1.25 0 0  1.28125 0 0  1.3125 0 0  1.34375 0 0  1.375 0 0  1.40625 0 0  1.4375 0 0  1.46875 0 0  1.5 0 0  0 0.03125 0  0.03125 0.03125 0  0.0625 0.03125 0  0.09375 0.03125 0  0.125 0.03125 0  0.15625 0.03125 0  0.1875 0.03125 0  0.21875 0.03125 0  0.25 0.03125 0  0.28125 0.03125 0  0.3125 0.03125 0  0.34375 0.03125 0  0.375 0.03125 0  0.40625 0.03125 0  0.4375 0.03125 0  0.46875 0.03125 0  0.5 0.03125 0  0.53125 0.03125 0  0.5625 0.03125 0  0.59375 0.03125 0  0.625 0.03125 0  0.65625 0.03125 0  0.6875 0.03125 0  0.71875 0.03125 0  0.75 0.03125 0  0.78125 0.03125 0  0.8125 0.03125 0  0.84375 0.03125 0  0.875 0.03125 0  0.90625 0.03125 0  0.9375 0.03125 0  0.96875 0.03125 0  1 0.03125 0  1.03125 0.03125 0  1.0625 0.03125 0  1.09375 0.03125 0  1.125 0.03125 0  1.15625 0.03125 0  1.1875 0.03125 0  1.21875 0.03125 0  1.25 0.03125 0  1.28125 0.03125 0  1.3125 0.03125 0  1.34375 0.03125 0  1.375 0.03125 0  1.40625 0.03125 0  1.4375 0.03125 0  1.46875 0.03125 0  1.5 0.03125 0  0 0.0625 0  0.03125 0.0625 0  0.0625 0.0625 0  0.09375 0.0625 0  0.125 0.0625 0  0.15625 0.0625 0  0.1875 0.0625 0  0.21875 0.0625 0  0.25 0.0625 0  0.28125 0.0625 0  0.3125 0.0625 0  0.34375 0.0625 0  0.375 0.0625 0  0.40625 0.0625 0  0.4375 0.0625 0  0.46875 0.0625 0  0.5 0.0625 0  0.53125 0.0625 0  0.5625 0.0625 0  0.59375 0.0625 0  0.625 0.0625 0  0.65625 0.0625 0  0.6875 0.0625 0  0.71875 0.0625 0  0.75 0.0625 0  0.78125 0.0625 0  0.8125 0.0625 0  0.84375 0.0625 0  0.875 0.0625 0  0.90625 0.0625 0  0.9375 0.0625 0  0.96875 0.0625 0  1 0.0625 0  1.03125 0.0625 0  1.0625 0.0625 0  1.09375 0.0625 0  1.125 0.0625 0  1.15625 0.0625 0  1.1875 0.0625 0  1.21875 0.0625 0  1.25 0.0625 0  1.28125 0.0625 0  1.3125 0.0625 0  1.34375 0.0625 0  1.375 0.0625 0  1.40625 0.0625 0  1.4375 0.0625 0  1.46875 0.0625 0  1.5 0.0625 0  0 0.09375 0  0.03125 0.09375 0  0.0625 0.09375 0  0.09375 0.09375 0  0.125 0.09375 0  0.15625 0.09375 0  0.1875 0.09375 0  0.21875 0.09375 0  0.25 0.09375 0  0.28125 0.09375 0  0.3125 0.09375 0  0.34375 0.09375 0  0.375 0.09375 0  0.40625 0.09375 0  0.4375 0.09375 0  0.46875 0.09375 0  0.5 0.09375 0  0.53125 0.09375 0  0.5625 0.09375 0  0.59375 0.09375 0  0.625 0.09375 0  0.65625 0.09375 0  0.6875 0.09375 0  0.71875 0.09375 0  0.75 0.09375 0  0.78125 0.09375 0  0.8125 0.09375 0  0.84375 0.09375 0  0.875 0.09375 0  0.90625 0.09375 0  0.9375 0.09375 0  0.96875 0.09375 0  1 0.09375 0  1.03125 0.09375 0  1.0625 0.09375 0  1.09375 0.09375 0  1.125 0.09375 0  1.15625 0.09375 0  1.1875 0.09375 0  1.21875 0.09375 0  1.25 0.09375 0  1.28125 0.09375 0  1.3125 0.09375 0  1.34375 0.09375 0  1.375 0.09375 0  1.40625 0.09375 0  1.4375 0.09375 0  1.46875 0.09375 0  1.5 0.09375 0  0 0.125 0  0.03125 0.125 0  0.0625 0.125 0  0.09375 0.125 0  0.125 0.125 0  0.15625 0.125 0  0.1875 0.125 0  0.21875 0.125 0  0.25 0.125 0  0.28125 0.125 0  0.3125 0.125 0  0.34375 0.125 0  0.375 0.125 0  0.40625 0.125 0  0.4375 0.125 0  0.46875 0.125 0  0.5 0.125 0  0.53125 0.125 0  0.5625 0.125 0  0.59375 0.125 0  0.625 0.125 0  0.65625 0.125 0  0.6875 0.125 0  0.71875 0.125 0  0.75 0.125 0  0.78125 0.125 0  0.8125 0.125 0  0.84375 0.125 0  0.875 0.125 0  0.90625 0.125 0  0.9375 0.125 0  0.96875 0.125 0  1 0.125 0  1.03125 0.125 0  1.0625 0.125 0  1.09375 0.125 0  1.125 0.125 0  1.15625 0.125 0  1.1875 0.125 0  1.21875 0.125 0  1.25 0.125 0  1.28125 0.125 0  1.3125 0.125 0  1.34375 0.125 0  1.375 0.125 0  1.40625 0.125 0  1.4375 0.125 0  1.46875 0.125 0  1.5 0.125 0  0 0.15625 0  0.03125 0.15625 0  0.0625 0.15625 0  0.09375 0.15625 0  0.125 0.15625 0  0.15625 0.15625 0  0.1875 0.15625 0  0.21875 0.15625 0  0.25 0.15625 0  0.28125 0.15625 0  0.3125 0.15625 0  0.34375 0.15625 0  0.375 0.15625 0  0.40625 0.15625 0  0.4375 0.15625 0  0.46875 0.15625 0  0.5 0.15625 0  0.53125 0.15625 0  0.5625 0.15625 0  0.59375 0.15625 0  0.625 0.15625 0  0.65625 0.15625 0  0.6875 0.15625 0  0.71875 0.15625 0  0.75 0.15625 0  0.78125 0.15625 0  0.8125 0.15625 0  0.84375 0.15625 0  0.875 0.15625 0  0.90625 0.15625 0  0.9375 0.15625 0  0.96875 0.15625 0  1 0.15625 0  1.03125 0.15625 0  1.0625 0.15625 0  1.09375 0.15625 0  1.125 0.15625 0  1.15625 0.15625 0  1.1875 0.15625 0  1.21875 0.15625 0  1.25 0.15625 0  1.28125 0.15625 0  1.3125 0.15625 0  1.34375 0.15625 0  1.375 0.15625 0  1.40625 0.15625 0  1.4375 0.15625 0  1.46875 0.15625 0  1.5 0.15625 0  0 0.1875 0  0.03125 0.1875 0  0.0625 0.1875 0  0.09375 0.1875 0  0.125 0.1875 0  0.15625 0.1875 0  0.1875 0.1875 0  0.21875 0.1875 0  0.25 0.1875 0  0.28125 0.1875 0  0.3125 0.1875 0  0.34375 0.1875 0  0.375 0.1875 0  0.40625 0.1875 0  0.4375 0.1875 0  0.46875 0.1875 0  0.5 0.1875 0  0.53125 0.1875 0  0.5625 0.1875 0  0.59375 0.1875 0  0.625 0.1875 0  0.65625 0.1875 0  0.6875 0.1875 0  0.71875 0.1875 0  0.75 0.1875 0  0.78125 0.1875 0  0.8125 0.1875 0  0.84375 0.1875 0  0.875 0.1875 0  0.90625 0.1875 0  0.9375 0.1875 0  0.96875 0.1875 0  1 0.1875 0  1.03125 0.1875 0  1.0625 0.1875 0  1.09375 0.1875 0  1.125 0.1875 0  1.15625 0.1875 0  1.1875 0.1875 0  1.21875 0.1875 0  1.25 0.1875 0  1.28125 0.1875 0  1.3125 0.1875 0  1.34375 0.1875 0  1.375 0.1875 0  1.40625 0.1875 0  1.4375 0.1875 0  1.46875 0.1875 0  1.5 0.1875 0  0 0.21875 0  0.03125 0.21875 0  0.0625 0.21875 0  0.09375 0.21875 0  0.125 0.21875 0  0.15625 0.21875 0  0.1875 0.21875 0  0.21875 0.21875 0  0.25 0.21875 0  0.28125 0.21875 0  0.3125 0.21875 0  0.34375 0.21875 0  0.375 0.21875 0  0.40625 0.21875 0  0.4375 0.21875 0  0.46875 0.21875 0  0.5 0.21875 0  0.53125 0.21875 0  0.5625 0.21875 0  0.59375 0.21875 0  0.625 0.21875 0  0.65625 0.21875 0  0.6875 0.21875 0  0.71875 0.21875 0  0.75 0.21875 0  0.78125 0.21875 0  0.8125 0.21875 0  0.84375 0.21875 0  0.875 0.21875 0  0.90625 0.21875 0  0.9375 0.21875 0  0.96875 0.21875 0  1 0.21875 0  1.03125 0.21875 0  1.0625 0.21875 0  1.09375 0.21875 0  1.125 0.21875 0  1.15625 0.21875 0  1.1875 0.21875 0  1.21875 0.21875 0  1.25 0.21875 0  1.28125 0.21875 0  1.3125 0.21875 0  1.34375 0.21875 0  1.375 0.21875 0  1.40625 0.21875 0  1.4375 0.21875 0  1.46875 0.21875 0  1.5 0.21875 0  0 0.25 0  0.03125 0.25 0  0.0625 0.25 0  0.09375 0.25 0  0.125 0.25 0  0.15625 0.25 0  0.1875 0.25 0  0.21875 0.25 0  0.25 0.25 0  0.28125 0.25 0  0.3125 0.25 0  0.34375 0.25 0  0.375 0.25 0  0.40625 0.25 0  0.4375 0.25 0  0.46875 0.25 0  0.5 0.25 0  0.53125 0.25 0  0.5625 0.25 0  0.59375 0.25 0  0.625 0.25 0  0.65625 0.25 0  0.6875 0.25 0  0.71875 0.25 0  0.75 0.25 0  0.78125 0.25 0  0.8125 0.25 0  0.84375 0.25 0  0.875 0.25 0  0.90625 0.25 0  0.9375 0.25 0  0.96875 0.25 0  1 0.25 0  1.03125 0.25 0  1.0625 0.25 0  1.09375 0.25 0  1.125 0.25 0  1.15625 0.25 0  1.1875 0.25 0  1.21875 0.25 0  1.25 0.25 0  1.28125 0.25 0  1.3125 0.25 0  1.34375 0.25 0  1.375 0.25 0  1.40625 0.25 0  1.4375 0.25 0  1.46875 0.25 0  1.5 0.25 0  0 0.28125 0  0.03125 0.28125 0  0.0625 0.28125 0  0.09375 0.28125 0  0.125 0.28125 0  0.15625 0.28125 0  0.1875 0.28125 0  0.21875 0.28125 0  0.25 0.28125 0  0.28125 0.28125 0  0.3125 0.28125 0  0.34375 0.28125 0  0.375 0.28125 0  0.40625 0.28125 0  0.4375 0.28125 0  0.46875 0.28125 0  0.5 0.28125 0  0.53125 0.28125 0  0.5625 0.28125 0  0.59375 0.28125 0  0.625 0.28125 0  0.65625 0.28125 0  0.6875 0.28125 0  0.71875 0.28125 0  0.75 0.28125 0  0.78125 0.28125 0  0.8125 0.28125 0  0.84375 0.28125 0  0.875 0.28125 0  0.90625 0.28125 0  0.9375 0.28125 0  0.96875 0.28125 0  1 0.28125 0  1.03125 0.28125 0  1.0625 0.28125 0  1.09375 0.28125 0  1.125 0.28125 0  1.15625 0.28125 0  1.1875 0.28125 0  1.21875 0.28125 0  1.25 0.28125 0  1.28125 0.28125 0  1.3125 0.28125 0  1.34375 0.28125 0  1.375 0.28125 0  1.40625 0.28125 0  1.4375 0.28125 0  1.46875 0.28125 0  1.5 0.28125 0  0 0.3125 0  0.03125 0.3125 0  0.0625 0.3125 0  0.09375 0.3125 0  0.125 0.3125 0  0.15625 0.3125 0  0.1875 0.3125 0  0.21875 0.3125 0  0.25 0.3125 0  0.28125 0.3125 0  0.3125 0.3125 0  0.34375 0.3125 0  0.375 0.3125 0  0.40625 0.3125 0  0.4375 0.3125 0  0.46875 0.3125 0  0.5 0.3125 0  0.53125 0.3125 0  0.5625 0.3125 0  0.59375 0.3125 0  0.625 0.3125 0  0.65625 0.3125 0  0.6875 0.3125 0  0.71875 0.3125 0  0.75 0.3125 0  0.78125 0.3125 0  0.8125 0.3125 0  0.84375 0.3125 0  0.875 0.3125 0  0.90625 0.3125 0  0.9375 0.3125 0  0.96875 0.3125 0  1 0.3125 0  1.03125 0.3125 0  1.0625 0.3125 0  1.09375 0.3125 0  1.125 0.3125 0  1.15625 0.3125 0  1.1875 0.3125 0  1.21875 0.3125 0  1.25 0.3125 0  1.28125 0.3125 0  1.3125 0.3125 0  1.34375 0.3125 0  1.375 0.3125 0  1.40625 0.3125 0  1.4375 0.3125 0  1.46875 0.3125 0  1.5 0.3125 0  0 0.34375 0  0.03125 0.34375 0  0.0625 0.34375 0  0.09375 0.34375 0  0.125 0.34375 0  0.15625 0.34375 0  0.1875 0.34375 0  0.21875 0.34375 0  0.25 0.34375 0  0.28125 0.34375 0  0.3125 0.34375 0  0.34375 0.34375 0  0.375 0.34375 0  0.40625 0.34375 0  0.4375 0.34375 0  0.46875 0.34375 0  0.5 0.34375 0  0.53125 0.34375 0  0.5625 0.34375 0  0.59375 0.34375 0  0.625 0.34375 0  0.65625 0.34375 0  0.6875 0.34375 0  0.71875 0.34375 0  0.75 0.34375 0  0.78125 0.34375 0  0.8125 0.34375 0  0.84375 0.34375 0  0.875 0.34375 0  0.90625 0.34375 0  0.9375 0.34375 0  0.96875 0.34375 0  1 0.34375 0  1.03125 0.34375 0  1.0625 0.34375 0  1.09375 0.34375 0  1.125 0.34375 0  1.15625 0.34375 0  1.1875 0.34375 0  1.21875 0.34375 0  1.25 0.34375 0  1.28125 0.34375 0  1.3125 0.34375 0  1.34375 0.34375 0  1.375 0.34375 0  1
[...]
<PointData  Vectors="f_17"> 
<DataArray  type="Float64"  Name="f_17"  NumberOfComponents="3" format="ascii">0.0000000000000000e+00 0.0000000000000000e+00 0.0000000000000000e+00  0.0000000000000000e+00 0.0000000000000000e+00 0.0000000000000000e+00  0.0000000000000000e+00 0.0000000000000000e+00 0.0000000000000000e+00  0.0000000000000000e+00 0.0000000000000000e+00 0.0000000000000000e+00  0.0000000000000000e+00 0.0000000000000000e+00 0.0000000000000000e+00  0.0000000000000000e+00 0.0000000000000000e+00 0.0000000000000000e+00  0.0000000000000000e+00 0.0000000000000000e+00 0.0000000000000000e+00  0.0000000000000000e+00 0.0000000000000000e+00 0.0000000000000000e+00  0.0000000000000000e+00 0.0000000000000000e+00 0.0000000000000000e+00  0.0000000000000000e+00 0.0000000000000000e+00 0.0000000000000000e+00  0.0000000000000000e+00 0.0000000000000000e+00 0.0000000000000000e+00  0.0000000000000000e+00 0.0000000000000000e+00 0.0000000000000000e+00  0.0000000000000000e+00 0.0000000000000000e+00 0.0000000000000000e+00  0.0000000000000000e+00 0.0000000000000000e+00 0.0000000000000000e+00  0.0000000000000000e+00 0.0000000000000000e+00 0.0000000000000000e+00  0.0000000000000000e+00 0.0000000000000000e+00 0.0000000000000000e+00  0.0000000000000000e+00 0.0000000000000000e+00 0.0000000000000000e+00  0.0000000000000000e+00 0.0000000000000000e+00 0.0000000000000000e+00  0.0000000000000000e+00 0.0000000000000000e+00 0.0000000000000000e+00  0.0000000000000000e+00 0.0000000000000000e+00 0.0000000000000000e+00  0.0000000000000000e+00 0.0000000000000000e+00 0.0000000000000000e+00  0.0000000000000000e+00 0.0000000000000000e+00 0.0000000000000000e+00  0.0000000000000000e+00 0.0000000000000000e+00 0.0000000000000000e+00  0.0000000000000000e+00 0.0000000000000000e+00 0.0000000000000000e+00  0.0000000000000000e+00 0.0000000000000000e+00 0.0000000000000000e+00  0.0000000000000000e+00 0.0000000000000000e+00 0.0000000000000000e+00  0.0000000000000000e+00 0.0000000000000000e+00 0.0000000000000000e+00  0.0000000000000000e+00 0.0000000000000000e+00 0.0000000000000000e+00  0.0000000000000000e+00 0.0000000000000000e+00 0.0000000000000000e+00  0.0000000000000000e+00 0.0000000000000000e+00 0.0000000000000000e+00  0.0000000000000000e+00 0.0000000000000000e+00 0.0000000000000000e+00  0.0000000000000000e+00 0.0000000000000000e+00 0.0000000000000000e+00  0.0000000000000000e+00 0.0000000000000000e+00 0.0000000000000000e+00  0.0000000000000000e+00 0.0000000000000000e+00 0.0000000000000000e+00  0.0000000000000000e+00 0.0000000000000000e+00 0.0000000000000000e+00  0.0000000000000000e+00 0.0000000000000000e+00 0.0000000000000000e+00  0.0000000000000000e+00 0.0000000000000000e+00 0.0000000000000000e+00  0.0000000000000000e+00 0.0000000000000000e+00 0.0000000000000000e+00  0.0000000000000000e+00 0.0000000000000000e+00 0.0000000000000000e+00  0.0000000000000000e+00 0.0000000000000000e+00 0.0000000000000000e+00  0.0000000000000000e+00 0.0000000000000000e+00 0.0000000000000000e+00  0.0000000000000000e+00 0.0000000000000000e+00 0.0000000000000000e+00  0.0000000000000000e+00 0.0000000000000000e+00 0.0000000000000000e+00  0.0000000000000000e+00 0.0000000000000000e+00 0.0000000000000000e+00  0.0000000000000000e+00 0.0000000000000000e+00 0.0000000000000000e+00  0.0000000000000000e+00 0.0000000000000000e+00 0.0000000000000000e+00  0.0000000000000000e+00 0.0000000000000000e+00 0.0000000000000000e+00  0.0000000000000000e+00 0.0000000000000000e+00 0.0000000000000000e+00  0.0000000000000000e+00 0.0000000000000000e+00 0.0000000000000000e+00  0.0000000000000000e+00 0.0000000000000000e+00 0.0000000000000000e+00  -1.1723938883400897e-09 1.3730730879659572e-08 0.0000000000000000e+00  -1.4368606556996408e-07 1.1444526829408278e-07 0.0000000000000000e+00  -8.6270946898179319e-08 -8.1671656224852120e-09 0.0000000000000000e+00  -2.8940309892400797e-07 -4.2421586798997267e-08 0.0000000000000000e+00  -2.8381137677372131e-07 -6.9158832039661170e-08 0.0000000000000000e+00  -2.8131609912955672e-07 -7.4495529484234660e-08 0.0000000000000000e+00  -2.8224272472011713e-07 -6.8074630403926441e-08 0.0000000000000000e+00  -2.7183535240202852e-07 -5.9246657784553899e-08 0.0000000000000000e+00  -2.6187971282898731e-07 -4.9254433474794771e-08 0.0000000000000000e+00  -2.5264374393980089e-07 -3.9169245956710215e-08 0.0000000000000000e+00  -2.4557276068488898e-07 -2.9403077510225215e-08 0.0000000000000000e+00  -2.4206783895920307e-07 -2.0054812682323635e-08 0.0000000000000000e+00  -2.4271048595779584e-07 -1.1175123388623594e-08 0.0000000000000000e+00  -2.4794589463955840e-07 -2.7519798936158178e-09 0.0000000000000000e+00  -2.5803923095024091e-07 5.2594928245882614e-09 0.0000000000000000e+00  -2.7314106445434775e-07 1.2910830799669817e-08 0.0000000000000000e+00  -2.9333332809721661e-07 2.0231549821343947e-08 0.0000000000000000e+00  -3.1861914457725755e-07 2.7195633334528356e-08 0.0000000000000000e+00  -3.4888592241559378e-07 3.3690433601654274e-08 0.0000000000000000e+00  -3.8383921801212469e-07 3.9497711736783613e-08 0.0000000000000000e+00  -4.2292214463723059e-07 4.4297128580775410e-08 0.0000000000000000e+00  -4.6524497914097361e-07 4.7698684936262694e-08 0.0000000000000000e+00  -5.0954846232957902e-07 4.9301948925399546e-08 0.0000000000000000e+00  -5.5422722681782609e-07 4.8769604448573573e-08 0.0000000000000000e+00  -5.9741035655297749e-07 4.5895852945651281e-08 0.0000000000000000e+00  -6.3710900480012104e-07 4.0649322138602826e-08 0.0000000000000000e+00  -6.7136002301742027e-07 3.3180588219867577e-08 0.0000000000000000e+00  -6.9842093244091365e-07 2.3789093454691927e-08 0.0000000000000000e+00  -7.1680099344179699e-07 1.2874621125726748e-08 0.0000000000000000e+00  -7.2549552553668574e-07 8.5627113979695052e-10 0.0000000000000000e+00  -7.2362932672666482e-07 -1.1843452920826936e-08 0.0000000000000000e+00  -7.1116760311680179e-07 -2.4930055756012944e-08 0.0000000000000000e+00  -6.8730209835374092e-07 -3.8037465388285360e-08 0.0000000000000000e+00  -6.5360424196844878e-07 -5.1211416069539011e-08 0.0000000000000000e+00  -6.0730679018185602e-07 -6.3789117199943349e-08 0.0000000000000000e+00  -5.5505607742204529e-07 -7.6817704013047727e-08 0.0000000000000000e+00  -4.8444895756919725e-07 -8.7587364131454311e-08 0.0000000000000000e+00  -4.2265466443721466e-07 -1.0147798008137157e-07 0.0000000000000000e+00  -3.1612946206466823e-07 -1.0597543870701678e-07 0.0000000000000000e+00  -2.7671505670740948e-07 -1.2647279405006260e-07 0.0000000000000000e+00  -8.0789687244538439e-08 -1.0645180569758233e-07 0.0000000000000000e+00  -1.8308070551969260e-07 -1.6044409879272574e-07 0.0000000000000000e+00  3.1963545095899417e-07 -4.2759424209748680e-08 0.0000000000000000e+00  -3.9841377197517140e-07 -2.4928939754338901e-07 0.0000000000000000e+00  1.1471100587612601e-06 2.2530497920594700e-07 0.0000000000000000e+00  -2.4199205895252701e-06 -7.5819204334725983e-07 0.0000000000000000e+00  2.6840209922789800e-06 1.3703571682606082e-06 0.0000000000000000e+00  0.0000000000000000e+00 0.0000000000000000e+00 0.0000000000000000e+00  0.0000000000000000e+00 0.0000000000000000e+00 0.0000000000000000e+00  -1.2717432084199779e-06 6.8149836128283398e-07 0.0000000000000000e+00  7.5571639456075433e-07 -1.9356280993853520e-08 0.0000000000000000e+00  -1.3621234808474077e-07 1.1665901083053409e-07 0.0000000000000000e+00  -3.1100661676032042e-07 8.3906286528187248e-10 0.0000000000000000e+00  -3.3091548047997568e-07 -5.0485781519304325e-08 0.0000000000000000e+00  -3.9638833374066277e-07 -7.3369718597765839e-08 0.0000000000000000e+00  -4.0403680583835564e-07 -8.0068319125300610e-08 0.0000000000000000e+00  -4.0191965368869692e-07 -7.7726834458957178e-08 0.0000000000000000e+00  -3.9518331594615568e-07 -6.9840833544401177e-08 0.0000000000000000e+00  -3.8502040629598929e-07 -5.8808989411930757e-08 0.0000000000000000e+00  -3.7614626329552650e-07 -4.5913979635376560e-08 0.0000000000000000e+00  -3.6994852850192976e-07 -3.2002088009648227e-08 0.0000000000000000e+00  -3.6755999262057727e-07 -1.7630982336076268e-08 0.0000000000000000e+00  -3.6974118922259369e-07 -3.1376692878978722e-09 0.0000000000000000e+00  -3.7688912003572104e-07 1.1286492563261053e-08 0.0000000000000000e+00  -3.8924315974929914e-07 2.5531715180971288e-08 0.0000000000000000e+00  -4.0691201610624360e-07 3.9501142821692544e-08 0.0000000000000000e+00  -4.2989213128459338e-07 5.3033914159241846e-08 0.0000000000000000e+00  -4.5804219630044408e-07 6.5831254848668856e-08 0.0000000000000000e+00  -4.9101482916095134e-07 7.7404417355724258e-08 0.0000000000000000e+00  -5.2816566581232709e-07 8.7067376469343837e-08 0.0000000000000000e+00  -5.6846864792879420e-07 9.3991520547598546e-08 0.0000000000000000e+00  -6.1047143182043287e-07 9.7321545327099686e-08 0.0000000000000000e+00  -6.5232827911269961e-07 9.6328132496435399e-08 0.0000000000000000e+00  -6.9190970706145452e-07 9.0555081953442489e-08 0.0000000000000000e+00  -7.2699675180097072e-07 7.9915429199187440e-08 0.0000000000000000e+00  -7.5546923193477655e-07 6.4710537874122256e-08 0.0000000000000000e+00  -7.7554003830055514e-07 4.5565342594431994e-08 0.0000000000000000e+00  -7.8578827043316087e-07 2.3318997259182736e-08 0.0000000000000000e+00  -7.8539967785360584e-07 -1.1274581287594304e-09 0.0000000000000000e+00  -7.7375042400419107e-07 -2.6886674673998377e-08 0.0000000000000000e+00  -7.5114754923934346e-07 -5.3256238046639481e-08 0.0000000000000000e+00  -7.1708183749481871e-07 -7.9532544854979918e-08 0.0000000000000000e+00  -6.7356427808057370e-07 -1.0547706326604600e-07 0.0000000000000000e+00  -6.1807055863991189e-07 -1.3020046745875121e-07 0.0000000000000000e+00  -5.5788959629599994e-07 -1.5444589400984860e-07 0.0000000000000000e+00  -4.8073959349662469e-07 -1.7535748900286678e-07 0.0000000000000000e+00  -4.1488975623761566e-07 -1.9753964623307326e-07 0.0000000000000000e+00  -3.0685828363157635e-07 -2.0888851412314199e-07 0.0000000000000000e+00  -2.6997847111166843e-07 -2.3180359079970980e-07 0.0000000000000000e+00  -8.1885900767506510e-08 -2.1407017664865289e-07 0.0000000000000000e+00  -1.9677485399896698e-07 -2.5771887701012888e-07 0.0000000000000000e+00  2.7771529556510799e-07 -1.4252102370320830e-07 0.0000000000000000e+00  -4.6287837299033197e-07 -3.1286106198419214e-07 0.0000000000000000e+00  9.7155525188697048e-07 1.2820024748691490e-07 0.0000000000000000e+00  -2.4444315277222395e-06 -6.3201784256937319e-07 0.0000000000000000e+00  2.6488315921119682e-06 1.4019483415325504e-06 0.0000000000000000e+00  0.0000000000000000e+00 0.0000000000000000e+00 0.0000000000000000e+00  0.0000000000000000e+00 0.0000000000000000e+00 0.0000000000000000e+00  -2.3231737653500974e-06 1.1641149869146022e-06 0.0000000000000000e+00  1.7070075711912503e-06 -1.1224815172438888e-07 0.0000000000000000e+00  -3.9754417103811774e-07 2.8327152912558683e-07 0.0000000000000000e+00  -2.3359578237497292e-08 3.0802194429315356e-08 0.0000000000000000e+00  -1.7494182923787133e-07 1.7450796840315060e-09 0.0000000000000000e+00  -2.3997137650291015e-07 -5.0073147930416814e-08 0.0000000000000000e+00  -2.6545704449150603e-07 -6.9685718118389294e-08 0.0000000000000000e+00  -3.0121059554429709e-07 -7.5592625061201489e-08 0.0000000000000000e+00  -3.2112382187135841e-07 -7.1741413608484550e-08 0.0000000000000000e+00  -3.3553909482740137e-07 -6.1597364662035634e-08 0.0000000000000000e+00  -3.4684162228454389e-07 -4.7555972931855723e-08 0.0000000000000000e+00  -3.5638229201967046e-07 -3.1159501681739549e-08 0.0000000000000000e+00  -3.6613135827838120e-07 -1.3452709703230992e-08 0.0000000000000000e+00  -3.7713810198134860e-07 4.8951924965210069e-09 0.0000000000000000e+00  -3.9020318335521194e-07 2.3473758980686224e-08 0.0000000000000000e+00  -4.0589497180397897e-07 4.2036051044067259e-08 0.0000000000000000e+00  -4.2459159994504757e-07 6.0395613192673982e-08 0.0000000000000000e+00  -4.4653720396892294e-07 7.8307005302232174e-08 0.0000000000000000e+00  -4.7182306431385810e-07 9.5344260376165347e-08 0.0000000000000000e+00  -5.0032563846849841e-07 1.1080489964730623e-07 0.0000000000000000e+00  -5.3160631285823310e-07 1.2368101220728188e-07 0.0000000000000000e+00  -5.6480916958165762e-07 1.3273232747720647e-07 0.0000000000000000e+00  -5.9860532023290770e-07 1.3666630332690064e-07 0.0000000000000000e+00  -6.3123653346333576e-07 1.3438628511906520e-07 0.0000000000000000e+00  -6.6066323413108821e-07 1.2523317675961920e-07 0.0000000000000000e+00  -6.8481716327396401e-07 1.0913967794932053e-07 0.0000000000000000e+00  -7.0184294733439954e-07 8.6650437160713128e-08 0.0000000000000000e+00  -7.1036425698592353e-07 5.8803967422200490e-08 0.0000000000000000e+00  -7.0950311749791934e-07 2.6939433646995856e-08 0.0000000000000000e+00  -6.9909183058704996e-07 -7.5422796133081735e-09 0.0000000000000000e+00  -6.7918065389361511e-07 -4.3315622230791306e-08 0.0000000000000000e+00  -6.5077077519346693e-07 -7.9335748185840672e-08 0.0000000000000000e+00  -6.1395530955432256e-07 -1.1464413098755745e-07 0.0000000000000000e+00  -5.7139477138184545e-07 -1.4882293099421428e-07 0.0000000000000000e+00  -5.2099278151736924e-07 -1.8082527572978749e-07 0.0000000000000000e+00  -4.7075419001494326e-07 -2.1123824777716901e-07 0.0000000000000000e+00  -4.0855523701410377e-07 -2.3702496001542284e-07 0.0000000000000000e+00  -3.6368927564636932e-07 -2.6243392502488546e-07 0.0000000000000000e+00  -2.8235912477769451e-07 -2.7535898848244845e-07 0.0000000000000000e+00  -2.7902832851024799e-07 -2.9693602795872525e-07 0.0000000000000000e+00  -1.3143784512207162e-07 -2.7747697190516904e-07 0.0000000000000000e+00  -2.8996777489840218e-07 -3.1287119156839791e-07 0.0000000000000000e+00  1.2583128197552070e-07 -2.0213013931816408e-07 0.0000000000000000e+00  -6.4736075571288123e-07 -3.5216133988584208e-07 0.0000000000000000e+00  7.0166552715521655e-07 3.8967348277223891e-08 0.0000000000000000e+00  -2.6388485882865357e-06 -6.0626545758853837e-07 0.0000000000000000e+00  2.2747587360189266e-06 1.1728236184803165e-06 0.0000000000000000e+00  0.0000000000000000e+00 0.0000000000000000e+00 0.0000000000000000e+00  0.0000000000000000e+00 0.0000000000000000e+00 0.0000000000000000e+00  -2.5780402878772727e-06 1.2188019164453132e-06 0.0000000000000000e+00  2.3205035551125075e-06 -1.3478535962907496e-07 0.0000000000000000e+00  -6.9585768341718225e-07 3.7117912064543318e-07 0.0000000000000000e+00  2.4979153568452414e-07 4.9756879712586092e-08 0.0000000000000000e+00  -1.8493525068140803e-07 7.9468652807357821e-08 0.0000000000000000e+00  -1.3578581757184874e-07 -3.3905789823126478e-09 0.0000000000000000e+00  -1.9229680154293500e-07 -2.6313873044202963e-08 0.0000000000000000e+00  -2.3602314336439168e-07 -4.4817364860122042e-08 0.0000000000000000e+00  -2.6423755543634295e-07 -4.8682476152510597e-08 0.0000000000000000e+00  -2.9106010230902061e-07 -4.4182598999159545e-08 0.0000000000000000e+00  -3.1189057774623772e-07 -3.3500322104701007e-08 0.0000000000000000e+00  -3.2984156177336537e-07 -1.8654021103081735e-08 0.0000000000000000e+00  -3.4628984821780085e-07 -1.1486029923856112e-09 0.0000000000000000e+00  -3.6215144372866760e-07 1.7988861619452511e-08 0.0000000000000000e+00  -3.7832649632133595e-07 3.8054651686160324e-08 0.0000000000000000e+00  -3.9540537009742642e-07 5.8599455472084705e-08 0.0000000000000000e+00  -4.1385063772486088e-07 7.9299698251393256e-08 0.0000000000000000e+00  -4.3402260208795509e-07 9.9803094435421767e-08 0.0000000000000000e+00  -4.5616788147237463e-07 1.1955118738382480e-07 0.0000000000000000e+00  -4.8035243765088143e-07 1.3762001862270365e-07 0.0000000000000000e+00  -5.0632767712540339e-07 1.5264948567882159e-07 0.0000000000000000e+00  -5.3338195008135350e-07 1.6292836802395068e-07 0.0000000000000000e+00  -5.6024793715897388e-07 1.6665637062951933e-07 0.0000000000000000e+00  -5.8514980509927274e-07 1.6232469484675152e-07 0.0000000000000000e+00  -6.0600746370941346e-07 1.4908824515105801e-07 0.0000000000000000e+00  -6.2078497970400041e-07 1.2699091808124771e-07 0.0000000000000000e+00  -6.2781868964486638e-07 9.6967483857507743e-08 0.0000000000000000e+00  -6.2613230364462394e-07 6.0630848591039474e-08 0.0000000000000000e+00  -6.1542218236659434e-07 1.9950902937413043e-08 0.0000000000000000e+00  -5.9622006546252059e-07 -2.3097592517268812e-08 0.0000000000000000e+00  -5.6926309195221214e-07 -6.6740290926783264e-08 0.0000000000000000e+00  -5.3623883094020867e-07 -1.0962382878416283e-07 0.0000000000000000e+00  -4.9770245132369090e-07 -1.5060031112633396e-07 0.0000000000000000e+00  -4.5687251319742596e-07 -1.8912762465117297e-07 0.0000000000000000e+00  -4.1165766852896438e-07 -2.2407899093550985e-07 0.0000000000000000e+00  -3.7076166571361390e-07 -2.5589361317116469e-07 0.0000000000000000e+00  -3.2110222190333326e-07 -2.8149960827571333e-07 0.0000000000000000e+00  -2.9373085911951102e-07 -3.0472808401706733e-07 0.0000000000000000e+00  -2.3110159534550565e-07 -3.1399112813302884e-07 0.0000000000000000e+00  -2.5326291709230565e-07 -3.2898894695787655e-07 0.0000000000000000e+00  -1.2571099100593384e-07 -3.0405712064441321e-07 0.0000000000000000e+00  -3.1639791207070930e-07 -3.2848400371693483e-07 0.0000000000000000e+00  9.0702956315984715e-08 -2.2157121088446872e-07 0.0000000000000000e+00  -7.1609925836530050e-07 -3.5352923428542336e-07 0.0000000000000000e+00  6.5532408312816446e-07 -7.2512914918912330e-09 0.0000000000000000e+00  -2.6881679563498582e-06 -5.7229033086497329e-07 0.0000000000000000e+00  2.2596448068638474e-06 1.0027743825375123e-06 0.0000000000000000e+00  0.0000000000000000e+00 0.0000000000000000e+00 0.0000000000000000e+00  0.0000000000000000e+00 0.0000000000000000e+00 0.0000000000000000e+00  -2.5260952268951288e-06 1.1190082809836252e-06 0.0000000000000000e+00  2.5695734342485439e-06 -1.0907768713049925e-07 0.0000000000000000e+00  -8.3046697773738389e-07 3.8093371241231343e-07 0.0000000000000000e+00  4.6913172174206774e-07 6.9208037698440600e-08 0.0000000000000000e+00  -2.2235262901777521e-07 1.4012261301840345e-07 0.0000000000000000e+00  -1.1159172139839817e-08 3.8826806241393675e-08 0.0000000000000000e+00  -1.3180146913807914e-07 2.2630065765176943e-08 0.0000000000000000e+00  -1.5409981045738218e-07 -7.1903237603632727e-09 0.0000000000000000e+00  -1.9196921243535952e-07 -1.5968412641835550e-08 0.0000000000000000e+00  -2.2561070580061269e-07 -1.7409530938600919e-08 0.0000000000000000e+00  -2.5284525526497264e-07 -1.0675689212476578e-08 0.0000000000000000e+00  -2.7772569230789698e-07 1.4126606863239979e-09 0.0000000000000000e+00  -2.9983142637471371e-07 1.7292280480672983e-08 0.0000000000000000e+00  -3.2028876111772993e-07 3.5672929835762266e-08 0.0000000000000000e+00  -3.3979825919090793e-07 5.5626901217365275e-08 0.0000000000000000e+00  -3.5887447454310018e-07 7.6552368880570735e-08 0.0000000000000000e+00  -3.7800012891766656e-07 9.8035444530693524e-08 0.0000000000000000e+00  -3.9759774875269550e-07 1.1968167722282342e-07 0.0000000000000000e+00  -4.1805780185589423e-07 1.4087102087573258e-07 0.0000000000000000e+00  -4.3965085305339131e-07 1.6050739316039727e-07 0.0000000000000000e+00  -4.6234077746197305e-07 1.7686998748090110e-07 0.0000000000000000e+00  -4.8555342150165979e-07 1.8769586720271662e-07 0.0000000000000000e+00  -5.0801142499957086e-07 1.9055515785622605e-07 0.0000000000000000e+00  -5.2777786495425643e-07 1.8343361239076353e-07 0.0000000000000000e+00  -5.4255300872866560e-07 1.6530425317110320e-07 0.0000000000000000e+00  -5.5018297204018759e-07 1.3644773316598605e-07 0.0000000000000000e+00  -5.4913102848119525e-07 9.8400255768367336e-08 0.0000000000000000e+00  -5.3885423039874090e-07 5.3572463033088664e-08 0.0000000000000000e+00  -5.1972418417811635e-07 4.7286856134417110e-09 0.0000000000000000e+00  -4.9307803629830112e-07 -4.5519170943109612e-08 0.0000000000000000e+00  -4.6040969364181214e-07 -9.4985111054818112e-08 0.0000000000000000e+00  -4.2407778556813997e-07 -1.4212011487624631e-07 0.0000000000000000e+00  -3.8503709130412336e-07 -1.8573691375060099e-07 0.0000000000000000e+00  -3.4687795652875009e-07 -2.2533467460058205e-