<?xml version="1.0"?>
<VTKFile type="UnstructuredGrid"  version="0.1"  >
<UnstructuredGrid>
<Piece  NumberOfPoints="1617" NumberOfCells="3072">
<Points>
<DataArray  type="Float64"  NumberOfComponents="3"  format="ascii">0 0 0  0.03125 0 0  0.0625 0 0  0.09375 0 0  0.125 0 0  0.15625 0 0  0.1875 0 0  0.21875 0 0  0.25 0 0  0.28125 0 0  0.3125 0 0  0.34375 0 0  0.375 0 0  0.40625 0 0  0.4375 0 0  0.46875 0 0  0.5 0 0  0.53125 0 0  0.5625 0 0  0.59375 0 0  0.625 0 0  0.65625 0 0  0.6875 0 0  0.71875 0 0  0.75 0 0  0.78125 0 0  0.8125 0 0  0.84375 0 0  0.875 0 0  0.90625 0 0  0.9375 0 0  0.96875 0 0  1 0 0  1.03125 0 0  1.0625 0 0  1.09375 0 0  1.125 0 0  1.15625 0 0  1.1875 0 0  1.21875 0 0  1.25 0 0  1.28125 0 0  1.3125 0 0  1.34375 0 0  1.375 0 0  1.40625 0 0  1.4375 0 0  1.46875 0 0  1.5 0 0  0 0.03125 0  0.03125 0.03125 0  0.0625 0.03125 0  0.09375 0.03125 0  0.125 0.03125 0  0.15625 0.03125 0  0.1875 0.03125 0  0.21875 0.03125 0  0.25 0.03125 0  0.28125 0.03125 0  0.3125 0.03125 0  0.34375 0.03125 0  0.375 0.03125 0  0.40625 0.03125 0  0.4375 0.03125 0  0.46875 0.03125 0  0.5 0.03125 0  0.53125 0.03125 0  0.5625 0.03125 0  0.59375 0.03125 0  0.625 0.03125 0  0.65625 0.03125 0  0.6875 0.03125 0  0.71875 0.03125 0  0.75 0.03125 0  0.78125 0.03125 0  0.8125 0.03125 0  0.84375 0.03125 0  0.875 0.03125 0  0.90625 0.03125 0  0.9375 0.03125 0  0.96875 0.03125 0  1 0.03125 0  1.03125 0.03125 0  1.0625 0.03125 0  1.09375 0.03125 0  1.125 0.03125 0  1.15625 0.03125 0  1.1875 0.03125 0  1.21875 0.03125 0  1.25 0.03125 0  1.28125 0.03125 0  1.3125 0.03125 0  1.34375 0.03125 0  1.375 0.03125 0  1.40625 0.03125 0  1.4375 0.03125 0  1.46875 0.03125 0  1.5 0.03125 0  0 0.0625 0  0.03125 0.0625 0  0.0625 0.0625 0  0.09375 0.0625 0  0.125 0.0625 0  0.15625 0.0625 0  0.1875 0.0625 0  0.21875 0.0625 0  0.25 0.0625 0  0.28125 0.0625 0  0.3125 0.0625 0  0.34375 0.0625 0  0.375 0.0625 0  0.40625 0.0625 0  0.4375 0.0625 0  0.46875 0.0625 0  0.5 0.0625 0  0.53125 0.0625 0  0.5625 0.0625 0  0.59375 0.0625 0  0.625 0.0625 0  0.65625 0.0625 0  0.6875 0.0625 0  0.71875 0.0625 0  0.75 0.0625 0  0.78125 0.0625 0  0.8125 0.0625 0  0.84375 0.0625 0  0.875 0.0625 0  0.90625 0.0625 0  0.9375 0.0625 0  0.96875 0.0625 0  1 0.0625 0  1.03125 0.0625 0  1.0625 0.0625 0  1.09375 0.0625 0  1.125 0.0625 0  1.15625 0.0625 0  1.1875 0.0625 0  1.21875 0.0625 0  1.25 0.0625 0  1.28125 0.0625 0  1.3125 0.0625 0  1.34375 0.0625 0  1.375 0.0625 0  1.40625 0.0625 0  1.4375 0.0625 0  1.46875 0.0625 0  1.5 0.0625 0  0 0.09375 0  0.03125 0.09375 0  0.0625 0.09375 0  0.09375 0.09375 0  0.125 0.09375 0  0.15625 0.09375 0  0.1875 0.09375 0  0.21875 0.09375 0  0.25 0.09375 0  0.28125 0.09375 0  0.3125 0.09375 0  0.34375 0.09375 0  0.375 0.09375 0  0.40625 0.09375 0  0.4375 0.09375 0  0.46875 0.09375 0  0.5 0.09375 0  0.53125 0.09375 0  0.5625 0.09375 0  0.59375 0.09375 0  0.625 0.09375 0  0.65625 0.09375 0  0.6875 0.09375 0  0.71875 0.09375 0  0.75 0.09375 0  0.78125 0.09375 0  0.8125 0.09375 0  0.84375 0.09375 0  0.875 0.09375 0  0.90625 0.09375 0  0.9375 0.09375 0  0.96875 0.09375 0  1 0.09375 0  1.03125 0.09375 0  1.0625 0.09375 0  1.09375 0.09375 0  1.125 0.09375 0  1.15625 0.09375 0  1.1875 0.09375 0  1.21875 0.09375 0  1.25 0.09375 0  1.28125 0.09375 0  1.3125 0.09375 0  1.34375 0.09375 0  1.375 0.09375 0  1.40625 0.09375 0  1.4375 0.09375 0  1.46875 0.09375 0  1.5 0.09375 0  0 0.125 0  0.03125 0.125 0  0.0625 0.125 0  0.09375 0.125 0  0.125 0.125 0  0.15625 0.125 0  0.1875 0.125 0  0.21875 0.125 0  0.25 0.125 0  0.28125 0.125 0  0.3125 0.125 0  0.34375 0.125 0  0.375 0.125 0  0.40625 0.125 0  0.4375 0.125 0  0.46875 0.125 0  0.5 0.125 0  0.53125 0.125 0  0.5625 0.125 0  0.59375 0.125 0  0.625 0.125 0  0.65625 0.125 0  0.6875 0.125 0  0.71875 0.125 0  0.75 0.125 0  0.78125 0.125 0  0.8125 0.125 0  0.84375 0.125 0  0.875 0.125 0  0.90625 0.125 0  0.9375 0.125 0  0.96875 0.125 0  1 0.125 0  1.03125 0.125 0  1.0625 0.125 0  1.09375 0.125 0  1.125 0.125 0  1.15625 0.125 0  1.1875 0.125 0  1.21875 0.125 0  1.25 0.125 0  1.28125 0.125 0  1.3125 0.125 0  1.34375 0.125 0  1.375 0.125 0  1.40625 0.125 0  1.4375 0.125 0  1.46875 0.125 0  1.5 0.125 0  0 0.15625 0  0.03125 0.15625 0  0.0625 0.15625 0  0.09375 0.15625 0  0.125 0.15625 0  0.15625 0.15625 0  0.1875 0.15625 0  0.21875 0.15625 0  0.25 0.15625 0  0.28125 0.15625 0  0.3125 0.15625 0  0.34375 0.15625 0  0.375 0.15625 0  0.40625 0.15625 0  0.4375 0.15625 0  0.46875 0.15625 0  0.5 0.15625 0  0.53125 0.15625 0  0.5625 0.15625 0  0.59375 0.15625 0  0.625 0.15625 0  0.65625 0.15625 0  0.6875 0.15625 0  0.71875 0.15625 0  0.75 0.15625 0  0.78125 0.15625 0  0.8125 0.15625 0  0.84375 0.15625 0  0.875 0.15625 0  0.90625 0.15625 0  0.9375 0.15625 0  0.96875 0.15625 0  1 0.15625 0  1.03125 0.15625 0  1.0625 0.15625 0  1.09375 0.15625 0  1.125 0.15625 0  1.15625 0.15625 0  1.1875 0.15625 0  1.21875 0.15625 0  1.25 0.15625 0  1.28125 0.15625 0  1.3125 0.15625 0  1.34375 0.15625 0  1.375 0.15625 0  1.40625 0.15625 0  1.4375 0.15625 0  1.46875 0.15625 0  1.5 0.15625 0  0 0.1875 0  0.03125 0.1875 0  0.0625 0.1875 0  0.09375 0.1875 0  0.125 0.1875 0  0.15625 0.1875 0  0.1875 0.1875 0  0.21875 0.1875 0  0.25 0.1875 0  0.28125 0.1875 0  0.3125 0.1875 0  0.34375 0.1875 0  0.375 0.1875 0  0.40625 0.1875 0  0.4375 0.1875 0  0.46875 0.1875 0  0.5 0.1875 0  0.53125 0.1875 0  0.5625 0.1875 0  0.59375 0.1875 0  0.625 0.1875 0  0.65625 0.1875 0  0.6875 0.1875 0  0.71875 0.1875 0  0.75 0.1875 0  0.78125 0.1875 0  0.8125 0.1875 0  0.84375 0.1875 0  0.875 0.1875 0  0.90625 0.1875 0  0.9375 0.1875 0  0.96875 0.1875 0  1 0.1875 0  1.03125 0.1875 0  1.0625 0.1875 0  1.09375 0.1875 0  1.125 0.1875 0  1.15625 0.1875 0  1.1875 0.1875 0  1.21875 0.1875 0  1.25 0.1875 0  1.28125 0.1875 0  1.3125 0.1875 0  1.34375 0.1875 0  1.375 0.1875 0  1.40625 0.1875 0  1.4375 0.1875 0  1.46875 0.1875 0  1.5 0.1875 0  0 0.21875 0  0.03125 0.21875 0  0.0625 0.21875 0  0.09375 0.21875 0  0.125 0.21875 0  0.15625 0.21875 0  0.1875 0.21875 0  0.21875 0.21875 0  0.25 0.21875 0  0.28125 0.21875 0  0.3125 0.21875 0  0.34375 0.21875 0  0.375 0.21875 0  0.40625 0.21875 0  0.4375 0.21875 0  0.46875 0.21875 0  0.5 0.21875 0  0.53125 0.21875 0  0.5625 0.21875 0  0.59375 0.21875 0  0.625 0.21875 0  0.65625 0.21875 0  0.6875 0.21875 0  0.71875 0.21875 0  0.75 0.21875 0  0.78125 0.21875 0  0.8125 0.21875 0  0.84375 0.21875 0  0.875 0.21875 0  0.90625 0.21875 0  0.9375 0.21875 0  0.96875 0.21875 0  1 0.21875 0  1.03125 0.21875 0  1.0625 0.21875 0  1.09375 0.21875 0  1.125 0.21875 0  1.15625 0.21875 0  1.1875 0.21875 0  1.21875 0.21875 0  1.25 0.21875 0  1.28125 0.21875 0  1.3125 0.21875 0  1.34375 0.21875 0  1.375 0.21875 0  1.40625 0.21875 0  1.4375 0.21875 0  1.46875 0.21875 0  1.5 0.21875 0  0 0.25 0  0.03125 0.25 0  0.0625 0.25 0  0.09375 0.25 0  0.125 0.25 0  0.15625 0.25 0  0.1875 0.25 0  0.21875 0.25 0  0.25 0.25 0  0.28125 0.25 0  0.3125 0.25 0  0.34375 0.25 0  0.375 0.25 0  0.40625 0.25 0  0.4375 0.25 0  0.46875 0.25 0  0.5 0.25 0  0.53125 0.25 0  0.5625 0.25 0  0.59375 0.25 0  0.625 0.25 0  0.65625 0.25 0  0.6875 0.25 0  0.71875 0.25 0  0.75 0.25 0  0.78125 0.25 0  0.8125 0.25 0  0.84375 0.25 0  0.875 0.25 0  0.90625 0.25 0  0.9375 0.25 0  0.96875 0.25 0  1 0.25 0  1.03125 0.25 0  1.0625 0.25 0  1.09375 0.25 0  1.125 0.25 0  1.15625 0.25 0  1.1875 0.25 0  1.21875 0.25 0  1.25 0.25 0  1.28125 0.25 0  1.3125 0.25 0  1.34375 0.25 0  1.375 0.25 0  1.40625 0.25 0  1.4375 0.25 0  1.46875 0.25 0  1.5 0.25 0  0 0.28125 0  0.03125 0.28125 0  0.0625 0.28125 0  0.09375 0.28125 0  0.125 0.28125 0  0.15625 0.28125 0  0.1875 0.28125 0  0.21875 0.28125 0  0.25 0.28125 0  0.28125 0.28125 0  0.3125 0.28125 0  0.34375 0.28125 0  0.375 0.28125 0  0.40625 0.28125 0  0.4375 0.28125 0  0.46875 0.28125 0  0.5 0.28125 0  0.53125 0.28125 0  0.5625 0.28125 0  0.59375 0.28125 0  0.625 0.28125 0  0.65625 0.28125 0  0.6875 0.28125 0  0.71875 0.28125 0  0.75 0.28125 0  0.78125 0.28125 0  0.8125 0.28125 0  0.84375 0.28125 0  0.875 0.28125 0  0.90625 0.28125 0  0.9375 0.28125 0  0.96875 0.28125 0  1 0.28125 0  1.03125 0.28125 0  1.0625 0.28125 0  1.09375 0.28125 0  1.125 0.28125 0  1.15625 0.28125 0  1.1875 0.28125 0  1.21875 0.28125 0  1.25 0.28125 0  1.28125 0.28125 0  1.3125 0.28125 0  1.34375 0.28125 0  1.375 0.28125 0  1.40625 0.28125 0  1.4375 0.28125 0  1.46875 0.28125 0  1.5 0.28125 0  0 0.3125 0  0.03125 0.3125 0  0.0625 0.3125 0  0.09375 0.3125 0  0.125 0.3125 0  0.15625 0.3125 0  0.1875 0.3125 0  0.21875 0.3125 0  0.25 0.3125 0  0.28125 0.3125 0  0.3125 0.3125 0  0.34375 0.3125 0  0.375 0.3125 0  0.40625 0.3125 0  0.4375 0.3125 0  0.46875 0.3125 0  0.5 0.3125 0  0.53125 0.3125 0  0.5625 0.3125 0  0.59375 0.3125 0  0.625 0.3125 0  0.65625 0.3125 0  0.6875 0.3125 0  0.71875 0.3125 0  0.75 0.3125 0  0.78125 0.3125 0  0.8125 0.3125 0  0.84375 0.3125 0  0.875 0.3125 0  0.90625 0.3125 0  0.9375 0.3125 0  0.96875 0.3125 0  1 0.3125 0  1.03125 0.3125 0  1.0625 0.3125 0  1.09375 0.3125 0  1.125 0.3125 0  1.15625 0.3125 0  1.1875 0.3125 0  1.21875 0.3125 0  1.25 0.3125 0  1.28125 0.3125 0  1.3125 0.3125 0  1.34375 0.3125 0  1.375 0.3125 0  1.40625 0.3125 0  1.4375 0.3125 0  1.46875 0.3125 0  1.5 0.3125 0  0 0.34375 0  0.03125 0.34375 0  0.0625 0.34375 0  0.09375 0.34375 0  0.125 0.34375 0  0.15625 0.34375 0  0.1875 0.34375 0  0.21875 0.34375 0  0.25 0.34375 0  0.28125 0.34375 0  0.3125 0.34375 0  0.34375 0.34375 0  0.375 0.34375 0  0.40625 0.34375 0  0.4375 0.34375 0  0.46875 0.34375 0  0.5 0.34375 0  0.53125 0.34375 0  0.5625 0.34375 0  0.59375 0.34375 0  0.625 0.34375 0  0.65625 0.34375 0  0.6875 0.34375 0  0.71875 0.34375 0  0.75 0.34375 0  0.78125 0.34375 0  0.8125 0.34375 0  0.84375 0.34375 0  0.875 0.34375 0  0.90625 0.34375 0  0.9375 0.34375 0  0.96875 0.34375 0  1 0.34375 0  1.03125 0.34375 0  1.0625 0.34375 0  1.09375 0.34375 0  1.125 0.34375 0  1.15625 0.34375 0  1.1875 0.34375 0  1.21875 0.34375 0  1.25 0.34375 0  1.28125 0.34375 0  1.3125 0.34375 0  1.34375 0.34375 0  1.375 0.34375 0  1
[...]
<PointData  Vectors="f_17"> 
<DataArray  type="Float64"  Name="f_17"  NumberOfComponents="3" format="ascii">0.0000000000000000e+00 0.0000000000000000e+00 0.0000000000000000e+00  0.0000000000000000e+00 0.0000000000000000e+00 0.0000000000000000e+00  0.0000000000000000e+00 0.0000000000000000e+00 0.0000000000000000e+00  0.0000000000000000e+00 0.0000000000000000e+00 0.0000000000000000e+00  0.0000000000000000e+00 0.0000000000000000e+00 0.0000000000000000e+00  0.0000000000000000e+00 0.0000000000000000e+00 0.0000000000000000e+00  0.0000000000000000e+00 0.0000000000000000e+00 0.0000000000000000e+00  0.0000000000000000e+00 0.0000000000000000e+00 0.0000000000000000e+00  0.0000000000000000e+00 0.0000000000000000e+00 0.0000000000000000e+00  0.0000000000000000e+00 0.0000000000000000e+00 0.0000000000000000e+00  0.0000000000000000e+00 0.0000000000000000e+00 0.0000000000000000e+00  0.0000000000000000e+00 0.0000000000000000e+00 0.0000000000000000e+00  0.0000000000000000e+00 0.0000000000000000e+00 0.0000000000000000e+00  0.0000000000000000e+00 0.0000000000000000e+00 0.0000000000000000e+00  0.0000000000000000e+00 0.0000000000000000e+00 0.0000000000000000e+00  0.0000000000000000e+00 0.0000000000000000e+00 0.0000000000000000e+00  0.0000000000000000e+00 0.0000000000000000e+00 0.0000000000000000e+00  0.0000000000000000e+00 0.0000000000000000e+00 0.0000000000000000e+00  0.0000000000000000e+00 0.0000000000000000e+00 0.0000000000000000e+00  0.0000000000000000e+00 0.0000000000000000e+00 0.0000000000000000e+00  0.0000000000000000e+00 0.0000000000000000e+00 0.0000000000000000e+00  0.0000000000000000e+00 0.0000000000000000e+00 0.0000000000000000e+00  0.0000000000000000e+00 0.0000000000000000e+00 0.0000000000000000e+00  0.0000000000000000e+00 0.0000000000000000e+00 0.0000000000000000e+00  0.0000000000000000e+00 0.0000000000000000e+00 0.0000000000000000e+00  0.0000000000000000e+00 0.0000000000000000e+00 0.0000000000000000e+00  0.0000000000000000e+00 0.0000000000000000e+00 0.0000000000000000e+00  0.0000000000000000e+00 0.0000000000000000e+00 0.0000000000000000e+00  0.0000000000000000e+00 0.0000000000000000e+00 0.0000000000000000e+00  0.0000000000000000e+00 0.0000000000000000e+00 0.0000000000000000e+00  0.0000000000000000e+00 0.0000000000000000e+00 0.0000000000000000e+00  0.0000000000000000e+00 0.0000000000000000e+00 0.0000000000000000e+00  0.0000000000000000e+00 0.0000000000000000e+00 0.0000000000000000e+00  0.0000000000000000e+00 0.0000000000000000e+00 0.0000000000000000e+00  0.0000000000000000e+00 0.0000000000000000e+00 0.0000000000000000e+00  0.0000000000000000e+00 0.0000000000000000e+00 0.0000000000000000e+00  0.0000000000000000e+00 0.0000000000000000e+00 0.0000000000000000e+00  0.0000000000000000e+00 0.0000000000000000e+00 0.0000000000000000e+00  0.0000000000000000e+00 0.0000000000000000e+00 0.0000000000000000e+00  0.0000000000000000e+00 0.0000000000000000e+00 0.0000000000000000e+00  0.0000000000000000e+00 0.0000000000000000e+00 0.0000000000000000e+00  0.0000000000000000e+00 0.0000000000000000e+00 0.0000000000000000e+00  0.0000000000000000e+00 0.0000000000000000e+00 0.0000000000000000e+00  0.0000000000000000e+00 0.0000000000000000e+00 0.0000000000000000e+00  0.0000000000000000e+00 0.0000000000000000e+00 0.0000000000000000e+00  0.0000000000000000e+00 0.0000000000000000e+00 0.0000000000000000e+00  0.0000000000000000e+00 0.0000000000000000e+00 0.0000000000000000e+00  0.0000000000000000e+00 0.0000000000000000e+00 0.0000000000000000e+00  0.0000000000000000e+00 0.0000000000000000e+00 0.0000000000000000e+00  0.0000000000000000e+00 0.0000000000000000e+00 0.0000000000000000e+00  2.1561236365675724e-07 1.8263956322651006e-08 0.0000000000000000e+00  -1.4605201516861609e-07 1.0771118820515396e-07 0.0000000000000000e+00  -1.5231700890479504e-07 -1.5099557869486825e-08 0.0000000000000000e+00  -3.6256391307502530e-07 -5.6632349848532800e-08 0.0000000000000000e+00  -3.5094929162218352e-07 -8.4532217530157828e-08 0.0000000000000000e+00  -3.4022406536262713e-07 -9.0214085679095980e-08 0.0000000000000000e+00  -3.3091799587240104e-07 -8.3595883581178675e-08 0.0000000000000000e+00  -3.0957847813178396e-07 -7.4401645302208653e-08 0.0000000000000000e+00  -2.8865595574128807e-07 -6.4107348252143800e-08 0.0000000000000000e+00  -2.6855510186558613e-07 -5.3841178110006494e-08 0.0000000000000000e+00  -2.5066934228467687e-07 -4.3994472517472659e-08 0.0000000000000000e+00  -2.3631439162708170e-07 -3.4635645645878652e-08 0.0000000000000000e+00  -2.2600692589649733e-07 -2.5791768649923248e-08 0.0000000000000000e+00  -2.2015288371404226e-07 -1.7435053576232928e-08 0.0000000000000000e+00  -2.1899776636090852e-07 -9.5089210745363258e-09 0.0000000000000000e+00  -2.2268717932331573e-07 -1.9505549015439181e-09 0.0000000000000000e+00  -2.3131145352785108e-07 5.2830646441195590e-09 0.0000000000000000e+00  -2.4489709409560257e-07 1.2183459960035004e-08 0.0000000000000000e+00  -2.6337338054952378e-07 1.8660591546365417e-08 0.0000000000000000e+00  -2.8651055547531491e-07 2.4523935253692748e-08 0.0000000000000000e+00  -3.1384316232956182e-07 2.9484684099855034e-08 0.0000000000000000e+00  -3.4460178330783841e-07 3.3185396044040257e-08 0.0000000000000000e+00  -3.7767532177333907e-07 3.5255132442847409e-08 0.0000000000000000e+00  -4.1162933822808895e-07 3.5378307937328800e-08 0.0000000000000000e+00  -4.4477735946441016e-07 3.3358845649172193e-08 0.0000000000000000e+00  -4.7531600189444053e-07 2.9160422213112887e-08 0.0000000000000000e+00  -5.0145476698835373e-07 2.2913705623054762e-08 0.0000000000000000e+00  -5.2159809173161028e-07 1.4885513254492204e-08 0.0000000000000000e+00  -5.3436675966265773e-07 5.4344818176513748e-09 0.0000000000000000e+00  -5.3882683299370153e-07 -5.0648615835422440e-09 0.0000000000000000e+00  -5.3413299300828645e-07 -1.6233199721213288e-08 0.0000000000000000e+00  -5.2024240323076363e-07 -2.7814194572501700e-08 0.0000000000000000e+00  -4.9630846254916673e-07 -3.9473031271489325e-08 0.0000000000000000e+00  -4.6383788325379897e-07 -5.1279545210836986e-08 0.0000000000000000e+00  -4.1998378050107619e-07 -6.2589569051558622e-08 0.0000000000000000e+00  -3.7128429029951929e-07 -7.4465150339079981e-08 0.0000000000000000e+00  -3.0521758607731135e-07 -8.4211067679692195e-08 0.0000000000000000e+00  -2.4872642420656971e-07 -9.7217197458972627e-08 0.0000000000000000e+00  -1.4802384495043846e-07 -1.0097015399120585e-07 0.0000000000000000e+00  -1.1435462692937205e-07 -1.2081032564997229e-07 0.0000000000000000e+00  7.6256121003062746e-08 -1.0006960914360363e-07 0.0000000000000000e+00  -3.0550696160250675e-08 -1.5290680034216986e-07 0.0000000000000000e+00  4.6757655075473281e-07 -3.2999366272243034e-08 0.0000000000000000e+00  -2.5746157051700298e-07 -2.3548356219600887e-07 0.0000000000000000e+00  1.3144101309889245e-06 2.4898669462979968e-07 0.0000000000000000e+00  -2.4214915016532788e-06 -7.4346978209132744e-07 0.0000000000000000e+00  2.7099081846581655e-06 1.3757174217174536e-06 0.0000000000000000e+00  0.0000000000000000e+00 0.0000000000000000e+00 0.0000000000000000e+00  0.0000000000000000e+00 0.0000000000000000e+00 0.0000000000000000e+00  -1.1362207227324650e-06 7.2656565249317898e-07 0.0000000000000000e+00  8.4001982739266365e-07 2.3888540356499158e-09 0.0000000000000000e+00  -1.6973344043187461e-07 1.2505912846560784e-07 0.0000000000000000e+00  -3.5365564149887982e-07 -9.6714472951898667e-09 0.0000000000000000e+00  -3.7273334290410272e-07 -6.8790734958043654e-08 0.0000000000000000e+00  -4.3554528283935808e-07 -9.5970463310533770e-08 0.0000000000000000e+00  -4.3565231640253525e-07 -1.0443625454187378e-07 0.0000000000000000e+00  -4.2361601516980652e-07 -1.0273869921682468e-07 0.0000000000000000e+00  -4.0610611566652532e-07 -9.5146715112778887e-08 0.0000000000000000e+00  -3.8484799058914490e-07 -8.4369463933818664e-08 0.0000000000000000e+00  -3.6469493734640993e-07 -7.1783068056620867e-08 0.0000000000000000e+00  -3.4703857126090226e-07 -5.8244277487383189e-08 0.0000000000000000e+00  -3.3298709602442639e-07 -4.4295989025254838e-08 0.0000000000000000e+00  -3.2327952009377409e-07 -3.0255703899452320e-08 0.0000000000000000e+00  -3.1830198425264545e-07 -1.6294283758702877e-08 0.0000000000000000e+00  -3.1829525546363871e-07 -2.4983277398296006e-09 0.0000000000000000e+00  -3.2338388421587469e-07 1.1064254795895276e-08 0.0000000000000000e+00  -3.3359832283124279e-07 2.4270285470151973e-08 0.0000000000000000e+00  -3.4885454554575558e-07 3.6869451078771965e-08 0.0000000000000000e+00  -3.6889151262038763e-07 4.8432399235609333e-08 0.0000000000000000e+00  -3.9318543864265465e-07 5.8340739229717624e-08 0.0000000000000000e+00  -4.2086786584871337e-07 6.5835658747437157e-08 0.0000000000000000e+00  -4.5067957689948589e-07 7.0124762228085470e-08 0.0000000000000000e+00  -4.8099633652467315e-07 7.0524267329555578e-08 0.0000000000000000e+00  -5.0992556490883265e-07 6.6596694116332258e-08 0.0000000000000000e+00  -5.3548313889792568e-07 5.8241212293809531e-08 0.0000000000000000e+00  -5.5576254775730497e-07 4.5712459775597580e-08 0.0000000000000000e+00  -5.6915184354974630e-07 2.9561253066211249e-08 0.0000000000000000e+00  -5.7435456525454938e-07 1.0535024761951344e-08 0.0000000000000000e+00  -5.7062452619110230e-07 -1.0562936662272029e-08 0.0000000000000000e+00  -5.5735135727332112e-07 -3.2938331177122302e-08 0.0000000000000000e+00  -5.3480712992508351e-07 -5.5969237884895197e-08 0.0000000000000000e+00  -5.0241068178932591e-07 -7.9015765134345122e-08 0.0000000000000000e+00  -4.6207168914793732e-07 -1.0188577790581869e-07 0.0000000000000000e+00  -4.1114956392925335e-07 -1.2372065971816981e-07 0.0000000000000000e+00  -3.5679176529654963e-07 -1.4528159277971561e-07 0.0000000000000000e+00  -2.8657047006808495e-07 -1.6371719822491593e-07 0.0000000000000000e+00  -2.2851980657094975e-07 -1.8361795794509549e-07 0.0000000000000000e+00  -1.2895249509787990e-07 -1.9281876183375280e-07 0.0000000000000000e+00  -1.0072758777504429e-07 -2.1357347542190831e-07 0.0000000000000000e+00  7.8420665202394076e-08 -1.9332796186883980e-07 0.0000000000000000e+00  -4.5759465930421037e-08 -2.3353227117630060e-07 0.0000000000000000e+00  4.1626828713400251e-07 -1.1302442108263182e-07 0.0000000000000000e+00  -3.3961004184046616e-07 -2.7473047043896359e-07 0.0000000000000000e+00  1.0915331248997217e-06 1.7758984162702474e-07 0.0000000000000000e+00  -2.5038759497078402e-06 -5.8367716505191908e-07 0.0000000000000000e+00  2.5432737491111949e-06 1.4423873257443408e-06 0.0000000000000000e+00  0.0000000000000000e+00 0.0000000000000000e+00 0.0000000000000000e+00  0.0000000000000000e+00 0.0000000000000000e+00 0.0000000000000000e+00  -2.1992106810859139e-06 1.2083458725820333e-06 0.0000000000000000e+00  1.8352464946547763e-06 -7.4907935902204068e-08 0.0000000000000000e+00  -4.0620816502874946e-07 3.0522303787549207e-07 0.0000000000000000e+00  -2.6953749490744053e-08 2.7514716551622088e-08 0.0000000000000000e+00  -1.7932637789422556e-07 -1.5932049983236043e-08 0.0000000000000000e+00  -2.4648327054875842e-07 -7.6842399284888056e-08 0.0000000000000000e+00  -2.6830540769619476e-07 -1.0119163226029743e-07 0.0000000000000000e+00  -2.9761467101851316e-07 -1.0953847184603056e-07 0.0000000000000000e+00  -3.0973417043436050e-07 -1.0701814790202236e-07 0.0000000000000000e+00  -3.1558929484730518e-07 -9.7735212645100103e-08 0.0000000000000000e+00  -3.1780894589027006e-07 -8.4396725104885304e-08 0.0000000000000000e+00  -3.1785205648621353e-07 -6.8674342577753993e-08 0.0000000000000000e+00  -3.1773986816935347e-07 -5.1655880978525023e-08 0.0000000000000000e+00  -3.1855082221263504e-07 -3.4013550405140257e-08 0.0000000000000000e+00  -3.2110687228610166e-07 -1.6141124714240973e-08 0.0000000000000000e+00  -3.2599865715978131e-07 1.7441420244432878e-09 0.0000000000000000e+00  -3.3363492990503002e-07 1.9498216425179394e-08 0.0000000000000000e+00  -3.4430565605709474e-07 3.6933104050874735e-08 0.0000000000000000e+00  -3.5817017468462384e-07 5.3697637743470294e-08 0.0000000000000000e+00  -3.7520235413451057e-07 6.9181611255135398e-08 0.0000000000000000e+00  -3.9509662378249276e-07 8.2482675615698903e-08 0.0000000000000000e+00  -4.1716930411155375e-07 9.2469652453923701e-08 0.0000000000000000e+00  -4.4030148035345093e-07 9.7947691035117220e-08 0.0000000000000000e+00  -4.6297430032242987e-07 9.7888897480046878e-08 0.0000000000000000e+00  -4.8340142100195672e-07 9.1658231734079453e-08 0.0000000000000000e+00  -4.9976062711408048e-07 7.9158466549186923e-08 0.0000000000000000e+00  -5.1041271438566911e-07 6.0850765942647378e-08 0.0000000000000000e+00  -5.1414799755915432e-07 3.7646956230987141e-08 0.0000000000000000e+00  -5.1019332536489791e-07 1.0733752546782823e-08 0.0000000000000000e+00  -4.9842059541138445e-07 -1.8646315126791037e-08 0.0000000000000000e+00  -4.7886018385984090e-07 -4.9314264899068145e-08 0.0000000000000000e+00  -4.5244457443522095e-07 -8.0347603854188763e-08 0.0000000000000000e+00  -4.1916522604772364e-07 -1.1087967376960994e-07 0.0000000000000000e+00  -3.8155899695773708e-07 -1.4055302262197587e-07 0.0000000000000000e+00  -3.3740198071415378e-07 -1.6835145188294404e-07 0.0000000000000000e+00  -2.9456011710292907e-07 -1.9486440216177180e-07 0.0000000000000000e+00  -2.4078785829991344e-07 -2.1702475741801181e-07 0.0000000000000000e+00  -2.0519752352089866e-07 -2.3900383176696666e-07 0.0000000000000000e+00  -1.3389242233923750e-07 -2.4853704594056339e-07 0.0000000000000000e+00  -1.4104237989331080e-07 -2.6647032190671539e-07 0.0000000000000000e+00  -4.7354585548055848e-09 -2.4262921297336436e-07 0.0000000000000000e+00  -1.7573931092552849e-07 -2.7219009262681112e-07 0.0000000000000000e+00  2.2357296120826839e-07 -1.5337541975200426e-07 0.0000000000000000e+00  -5.6983431427373203e-07 -2.9209501602443537e-07 0.0000000000000000e+00  7.7237073672180828e-07 1.1102523314458407e-07 0.0000000000000000e+00  -2.7457931176026444e-06 -5.3632454212779931e-07 0.0000000000000000e+00  2.1465374678763583e-06 1.2300919638886314e-06 0.0000000000000000e+00  0.0000000000000000e+00 0.0000000000000000e+00 0.0000000000000000e+00  0.0000000000000000e+00 0.0000000000000000e+00 0.0000000000000000e+00  -2.4498556850265923e-06 1.2509381077031380e-06 0.0000000000000000e+00  2.4611880132254669e-06 -9.6820993300713205e-08 0.0000000000000000e+00  -6.9372229216347799e-07 3.9793148640542603e-07 0.0000000000000000e+00  2.6907294227242246e-07 5.3574783838239642e-08 0.0000000000000000e+00  -1.6558834439328636e-07 6.5405578049877576e-08 0.0000000000000000e+00  -1.1864900344171949e-07 -3.0131720529682595e-08 0.0000000000000000e+00  -1.7292864989048634e-07 -6.0749248026112249e-08 0.0000000000000000e+00  -2.1269131035157775e-07 -8.3900303906546016e-08 0.0000000000000000e+00  -2.3574749188266647e-07 -9.0584744698485641e-08 0.0000000000000000e+00  -2.5655842316104522e-07 -8.7929983082562709e-08 0.0000000000000000e+00  -2.7069351739197990e-07 -7.8623293157225494e-08 0.0000000000000000e+00  -2.8138697702507006e-07 -6.4946612628102063e-08 0.0000000000000000e+00  -2.9010352777131712e-07 -4.8529521771696144e-08 0.0000000000000000e+00  -2.9782590738254331e-07 -3.0444141203119837e-08 0.0000000000000000e+00  -3.0550463196339436e-07 -1.1394761117050114e-08 0.0000000000000000e+00  -3.1377307794225361e-07 8.1970579024856239e-09 0.0000000000000000e+00  -3.2313842555575931e-07 2.8058326499342135e-08 0.0000000000000000e+00  -3.3401575472456339e-07 4.7910428353406591e-08 0.0000000000000000e+00  -3.4672496933183474e-07 6.7293727897031948e-08 0.0000000000000000e+00  -3.6143220083499837e-07 8.5408392001806561e-08 0.0000000000000000e+00  -3.7802367411520064e-07 1.0103829496929480e-07 0.0000000000000000e+00  -3.9596234989552686e-07 1.1262235529747132e-07 0.0000000000000000e+00  -4.1419484213746479e-07 1.1849463936705501e-07 0.0000000000000000e+00  -4.3118973448517362e-07 1.1723847629694032e-07 0.0000000000000000e+00  -4.4512372476753320e-07 1.0803473876171425e-07 0.0000000000000000e+00  -4.5420477408364788e-07 9.0873650810628409e-08 0.0000000000000000e+00  -4.5697317804306864e-07 6.6558849968681386e-08 0.0000000000000000e+00  -4.5259458746495197e-07 3.6512401808693882e-08 0.0000000000000000e+00  -4.4083392769562111e-07 2.4816722689124802e-09 0.0000000000000000e+00  -4.2221890290415856e-07 -3.3782417329987362e-08 0.0000000000000000e+00  -3.9742187759650712e-07 -7.0705099741720651e-08 0.0000000000000000e+00  -3.6802163286759057e-07 -1.0709166524217841e-07 0.0000000000000000e+00  -3.3444147593805508e-07 -1.4190461024940373e-07 0.0000000000000000e+00  -2.9975903364129030e-07 -1.7466364512684574e-07 0.0000000000000000e+00  -2.6175356080836570e-07 -2.0425783868282602e-07 0.0000000000000000e+00  -2.2900406725242467e-07 -2.3109712793533593e-07 0.0000000000000000e+00  -1.8833930654973828e-07 -2.5202879526269434e-07 0.0000000000000000e+00  -1.7067978402758291e-07 -2.7073410497360191e-07 0.0000000000000000e+00  -1.1844754033181206e-07 -2.7537401623059283e-07 0.0000000000000000e+00  -1.5146055939284795e-07 -2.8526148230274877e-07 0.0000000000000000e+00  -3.5590588649235122e-08 -2.5419194939849332e-07 0.0000000000000000e+00  -2.3904547503793417e-07 -2.7082266430934042e-07 0.0000000000000000e+00  1.5176156420438046e-07 -1.5403179725824644e-07 0.0000000000000000e+00  -6.7360055721963639e-07 -2.7384669426764691e-07 0.0000000000000000e+00  6.9600900750675731e-07 8.3075612622604041e-08 0.0000000000000000e+00  -2.8145299302626584e-06 -4.8688632212471489e-07 0.0000000000000000e+00  2.1262783165081494e-06 1.0687040996940346e-06 0.0000000000000000e+00  0.0000000000000000e+00 0.0000000000000000e+00 0.0000000000000000e+00  0.0000000000000000e+00 0.0000000000000000e+00 0.0000000000000000e+00  -2.3969325492518103e-06 1.1420032070144433e-06 0.0000000000000000e+00  2.7121529194245054e-06 -7.7645528068196926e-08 0.0000000000000000e+00  -8.2425369151435285e-07 4.0522713020759629e-07 0.0000000000000000e+00  4.9806139417167630e-07 7.5418836256781806e-08 0.0000000000000000e+00  -1.9157057752384908e-07 1.2844628586370871e-07 0.0000000000000000e+00  1.9423676996152123e-08 1.3105929160590502e-08 0.0000000000000000e+00  -9.9038090366099325e-08 -1.2725788126544887e-08 0.0000000000000000e+00  -1.1871997689631805e-07 -4.9003591930390444e-08 0.0000000000000000e+00  -1.5327267284348827e-07 -6.2020796990090947e-08 0.0000000000000000e+00  -1.8299458073075059e-07 -6.6365018769846883e-08 0.0000000000000000e+00  -2.0568468668815114e-07 -6.1783138936969161e-08 0.0000000000000000e+00  -2.2544646639118532e-07 -5.1449711561787030e-08 0.0000000000000000e+00  -2.4192976391350665e-07 -3.7121595224505950e-08 0.0000000000000000e+00  -2.5633287674543354e-07 -2.0177259042495047e-08 0.0000000000000000e+00  -2.6941882461457000e-07 -1.5676138738195977e-09 0.0000000000000000e+00  -2.8175691356131352e-07 1.8125474062485409e-08 0.0000000000000000e+00  -2.9388293839617536e-07 3.8541395277219277e-08 0.0000000000000000e+00  -3.0627842028972931e-07 5.9370522981234706e-08 0.0000000000000000e+00  -3.1940684308665587e-07 8.0111213853217797e-08 0.0000000000000000e+00  -3.3363471667969186e-07 9.9820366403522401e-08 0.0000000000000000e+00  -3.4905419702239163e-07 1.1695902258005268e-07 0.0000000000000000e+00  -3.6525949584511060e-07 1.2945759325217838e-07 0.0000000000000000e+00  -3.8118363927110427e-07 1.3506067636938758e-07 0.0000000000000000e+00  -3.9513372837588102e-07 1.3187122765227329e-07 0.0000000000000000e+00  -4.0506665725437989e-07 1.1888698159957951e-07 0.0000000000000000e+00  -4.0906645173632721e-07 9.6301890167578767e-08 0.0000000000000000e+00  -4.0578195577628677e-07 6.5459739822748564e-08 0.0000000000000000e+00  -3.9477797347392928e-07 2.8502236703876860e-08 0.0000000000000000e+00  -3.7644677681775951e-07 -1.2108781273754663e-08 0.0000000000000000e+00  -3.5206671136502460e-07 -5.4053787923906286e-08 0.0000000000000000e+00  -3.2301409653754639e-07 -9.5395139674628274e-08 0.0000000000000000e+00  -2.9149556394839853e-07 -1.3476868022686135e-07 0.0000000000000000e+00  -2.5830547205497109e-07 -1.7110246309908287e-07 0.0000000000000000e+00  -2.2688096550760385e-07 -2.0394420