<?xml version="1.0"?>
<VTKFile type="UnstructuredGrid"  version="0.1"  >
<UnstructuredGrid>
<Piece  NumberOfPoints="1617" NumberOfCells="3072">
<Points>
<DataArray  type="Float64"  NumberOfComponents="3"  format="ascii">0 0 0  0.03125 0 0  0.0625 0 0  0.09375 0 0  0.125 0 0  0.15625 0 0  0.1875 0 0  0.21875 0 0  0.25 0 0  0.28125 0 0  0.3125 0 0  0.34375 0 0  0.375 0 0  0.40625 0 0  0.4375 0 0  0.46875 0 0  0.5 0 0  0.53125 0 0  0.5625 0 0  0.59375 0 0  0.625 0 0  0.65625 0 0  0.6875 0 0  0.71875 0 0  0.75 0 0  0.78125 0 0  0.8125 0 0  0.84375 0 0  0.875 0 0  0.90625 0 0  0.9375 0 0  0.96875 0 0  1 0 0  1.03125 0 0  1.0625 0 0  1.09375 0 0  1.125 0 0  1.15625 0 0  1.1875 0 0  1.21875 0 0  1.25 0 0  1.28125 0 0  1.3125 0 0  1.34375 0 0  1.375 0 0  1.40625 0 0  1.4375 0 0  1.46875 0 0  1.5 0 0  0 0.03125 0  0.03125 0.03125 0  0.0625 0.03125 0  0.09375 0.03125 0  0.125 0.03125 0  0.15625 0.03125 0  0.1875 0.03125 0  0.21875 0.03125 0  0.25 0.03125 0  0.28125 0.03125 0  0.3125 0.03125 0  0.34375 0.03125 0  0.375 0.03125 0  0.40625 0.03125 0  0.4375 0.03125 0  0.46875 0.03125 0  0.5 0.03125 0  0.53125 0.03125 0  0.5625 0.03125 0  0.59375 0.03125 0  0.625 0.03125 0  0.65625 0.03125 0  0.6875 0.03125 0  0.71875 0.03125 0  0.75 0.03125 0  0.78125 0.03125 0  0.8125 0.03125 0  0.84375 0.03125 0  0.875 0.03125 0  0.90625 0.03125 0  0.9375 0.03125 0  0.96875 0.03125 0  1 0.03125 0  1.03125 0.03125 0  1.0625 0.03125 0  1.09375 0.03125 0  1.125 0.03125 0  1.15625 0.03125 0  1.1875 0.03125 0  1.21875 0.03125 0  1.25 0.03125 0  1.28125 0.03125 0  1.3125 0.03125 0  1.34375 0.03125 0  1.375 0.03125 0  1.40625 0.03125 0  1.4375 0.03125 0  1.46875 0.03125 0  1.5 0.03125 0  0 0.0625 0  0.03125 0.0625 0  0.0625 0.0625 0  0.09375 0.0625 0  0.125 0.0625 0  0.15625 0.0625 0  0.1875 0.0625 0  0.21875 0.0625 0  0.25 0.0625 0  0.28125 0.0625 0  0.3125 0.0625 0  0.34375 0.0625 0  0.375 0.0625 0  0.40625 0.0625 0  0.4375 0.0625 0  0.46875 0.0625 0  0.5 0.0625 0  0.53125 0.0625 0  0.5625 0.0625 0  0.59375 0.0625 0  0.625 0.0625 0  0.65625 0.0625 0  0.6875 0.0625 0  0.71875 0.0625 0  0.75 0.0625 0  0.78125 0.0625 0  0.8125 0.0625 0  0.84375 0.0625 0  0.875 0.0625 0  0.90625 0.0625 0  0.9375 0.0625 0  0.96875 0.0625 0  1 0.0625 0  1.03125 0.0625 0  1.0625 0.0625 0  1.09375 0.0625 0  1.125 0.0625 0  1.15625 0.0625 0  1.1875 0.0625 0  1.21875 0.0625 0  1.25 0.0625 0  1.28125 0.0625 0  1.3125 0.0625 0  1.34375 0.0625 0  1.375 0.0625 0  1.40625 0.0625 0  1.4375 0.0625 0  1.46875 0.0625 0  1.5 0.0625 0  0 0.09375 0  0.03125 0.09375 0  0.0625 0.09375 0  0.09375 0.09375 0  0.125 0.09375 0  0.15625 0.09375 0  0.1875 0.09375 0  0.21875 0.09375 0  0.25 0.09375 0  0.28125 0.09375 0  0.3125 0.09375 0  0.34375 0.09375 0  0.375 0.09375 0  0.40625 0.09375 0  0.4375 0.09375 0  0.46875 0.09375 0  0.5 0.09375 0  0.53125 0.09375 0  0.5625 0.09375 0  0.59375 0.09375 0  0.625 0.09375 0  0.65625 0.09375 0  0.6875 0.09375 0  0.71875 0.09375 0  0.75 0.09375 0  0.78125 0.09375 0  0.8125 0.09375 0  0.84375 0.09375 0  0.875 0.09375 0  0.90625 0.09375 0  0.9375 0.09375 0  0.96875 0.09375 0  1 0.09375 0  1.03125 0.09375 0  1.0625 0.09375 0  1.09375 0.09375 0  1.125 0.09375 0  1.15625 0.09375 0  1.1875 0.09375 0  1.21875 0.09375 0  1.25 0.09375 0  1.28125 0.09375 0  1.3125 0.09375 0  1.34375 0.09375 0  1.375 0.09375 0  1.40625 0.09375 0  1.4375 0.09375 0  1.46875 0.09375 0  1.5 0.09375 0  0 0.125 0  0.03125 0.125 0  0.0625 0.125 0  0.09375 0.125 0  0.125 0.125 0  0.15625 0.125 0  0.1875 0.125 0  0.21875 0.125 0  0.25 0.125 0  0.28125 0.125 0  0.3125 0.125 0  0.34375 0.125 0  0.375 0.125 0  0.40625 0.125 0  0.4375 0.125 0  0.46875 0.125 0  0.5 0.125 0  0.53125 0.125 0  0.5625 0.125 0  0.59375 0.125 0  0.625 0.125 0  0.65625 0.125 0  0.6875 0.125 0  0.71875 0.125 0  0.75 0.125 0  0.78125 0.125 0  0.8125 0.125 0  0.84375 0.125 0  0.875 0.125 0  0.90625 0.125 0  0.9375 0.125 0  0.96875 0.125 0  1 0.125 0  1.03125 0.125 0  1.0625 0.125 0  1.09375 0.125 0  1.125 0.125 0  1.15625 0.125 0  1.1875 0.125 0  1.21875 0.125 0  1.25 0.125 0  1.28125 0.125 0  1.3125 0.125 0  1.34375 0.125 0  1.375 0.125 0  1.40625 0.125 0  1.4375 0.125 0  1.46875 0.125 0  1.5 0.125 0  0 0.15625 0  0.03125 0.15625 0  0.0625 0.15625 0  0.09375 0.15625 0  0.125 0.15625 0  0.15625 0.15625 0  0.1875 0.15625 0  0.21875 0.15625 0  0.25 0.15625 0  0.28125 0.15625 0  0.3125 0.15625 0  0.34375 0.15625 0  0.375 0.15625 0  0.40625 0.15625 0  0.4375 0.15625 0  0.46875 0.15625 0  0.5 0.15625 0  0.53125 0.15625 0  0.5625 0.15625 0  0.59375 0.15625 0  0.625 0.15625 0  0.65625 0.15625 0  0.6875 0.15625 0  0.71875 0.15625 0  0.75 0.15625 0  0.78125 0.15625 0  0.8125 0.15625 0  0.84375 0.15625 0  0.875 0.15625 0  0.90625 0.15625 0  0.9375 0.15625 0  0.96875 0.15625 0  1 0.15625 0  1.03125 0.15625 0  1.0625 0.15625 0  1.09375 0.15625 0  1.125 0.15625 0  1.15625 0.15625 0  1.1875 0.15625 0  1.21875 0.15625 0  1.25 0.15625 0  1.28125 0.15625 0  1.3125 0.15625 0  1.34375 0.15625 0  1.375 0.15625 0  1.40625 0.15625 0  1.4375 0.15625 0  1.46875 0.15625 0  1.5 0.15625 0  0 0.1875 0  0.03125 0.1875 0  0.0625 0.1875 0  0.09375 0.1875 0  0.125 0.1875 0  0.15625 0.1875 0  0.1875 0.1875 0  0.21875 0.1875 0  0.25 0.1875 0  0.28125 0.1875 0  0.3125 0.1875 0  0.34375 0.1875 0  0.375 0.1875 0  0.40625 0.1875 0  0.4375 0.1875 0  0.46875 0.1875 0  0.5 0.1875 0  0.53125 0.1875 0  0.5625 0.1875 0  0.59375 0.1875 0  0.625 0.1875 0  0.65625 0.1875 0  0.6875 0.1875 0  0.71875 0.1875 0  0.75 0.1875 0  0.78125 0.1875 0  0.8125 0.1875 0  0.84375 0.1875 0  0.875 0.1875 0  0.90625 0.1875 0  0.9375 0.1875 0  0.96875 0.1875 0  1 0.1875 0  1.03125 0.1875 0  1.0625 0.1875 0  1.09375 0.1875 0  1.125 0.1875 0  1.15625 0.1875 0  1.1875 0.1875 0  1.21875 0.1875 0  1.25 0.1875 0  1.28125 0.1875 0  1.3125 0.1875 0  1.34375 0.1875 0  1.375 0.1875 0  1.40625 0.1875 0  1.4375 0.1875 0  1.46875 0.1875 0  1.5 0.1875 0  0 0.21875 0  0.03125 0.21875 0  0.0625 0.21875 0  0.09375 0.21875 0  0.125 0.21875 0  0.15625 0.21875 0  0.1875 0.21875 0  0.21875 0.21875 0  0.25 0.21875 0  0.28125 0.21875 0  0.3125 0.21875 0  0.34375 0.21875 0  0.375 0.21875 0  0.40625 0.21875 0  0.4375 0.21875 0  0.46875 0.21875 0  0.5 0.21875 0  0.53125 0.21875 0  0.5625 0.21875 0  0.59375 0.21875 0  0.625 0.21875 0  0.65625 0.21875 0  0.6875 0.21875 0  0.71875 0.21875 0  0.75 0.21875 0  0.78125 0.21875 0  0.8125 0.21875 0  0.84375 0.21875 0  0.875 0.21875 0  0.90625 0.21875 0  0.9375 0.21875 0  0.96875 0.21875 0  1 0.21875 0  1.03125 0.21875 0  1.0625 0.21875 0  1.09375 0.21875 0  1.125 0.21875 0  1.15625 0.21875 0  1.1875 0.21875 0  1.21875 0.21875 0  1.25 0.21875 0  1.28125 0.21875 0  1.3125 0.21875 0  1.34375 0.21875 0  1.375 0.21875 0  1.40625 0.21875 0  1.4375 0.21875 0  1.46875 0.21875 0  1.5 0.21875 0  0 0.25 0  0.03125 0.25 0  0.0625 0.25 0  0.09375 0.25 0  0.125 0.25 0  0.15625 0.25 0  0.1875 0.25 0  0.21875 0.25 0  0.25 0.25 0  0.28125 0.25 0  0.3125 0.25 0  0.34375 0.25 0  0.375 0.25 0  0.40625 0.25 0  0.4375 0.25 0  0.46875 0.25 0  0.5 0.25 0  0.53125 0.25 0  0.5625 0.25 0  0.59375 0.25 0  0.625 0.25 0  0.65625 0.25 0  0.6875 0.25 0  0.71875 0.25 0  0.75 0.25 0  0.78125 0.25 0  0.8125 0.25 0  0.84375 0.25 0  0.875 0.25 0  0.90625 0.25 0  0.9375 0.25 0  0.96875 0.25 0  1 0.25 0  1.03125 0.25 0  1.0625 0.25 0  1.09375 0.25 0  1.125 0.25 0  1.15625 0.25 0  1.1875 0.25 0  1.21875 0.25 0  1.25 0.25 0  1.28125 0.25 0  1.3125 0.25 0  1.34375 0.25 0  1.375 0.25 0  1.40625 0.25 0  1.4375 0.25 0  1.46875 0.25 0  1.5 0.25 0  0 0.28125 0  0.03125 0.28125 0  0.0625 0.28125 0  0.09375 0.28125 0  0.125 0.28125 0  0.15625 0.28125 0  0.1875 0.28125 0  0.21875 0.28125 0  0.25 0.28125 0  0.28125 0.28125 0  0.3125 0.28125 0  0.34375 0.28125 0  0.375 0.28125 0  0.40625 0.28125 0  0.4375 0.28125 0  0.46875 0.28125 0  0.5 0.28125 0  0.53125 0.28125 0  0.5625 0.28125 0  0.59375 0.28125 0  0.625 0.28125 0  0.65625 0.28125 0  0.6875 0.28125 0  0.71875 0.28125 0  0.75 0.28125 0  0.78125 0.28125 0  0.8125 0.28125 0  0.84375 0.28125 0  0.875 0.28125 0  0.90625 0.28125 0  0.9375 0.28125 0  0.96875 0.28125 0  1 0.28125 0  1.03125 0.28125 0  1.0625 0.28125 0  1.09375 0.28125 0  1.125 0.28125 0  1.15625 0.28125 0  1.1875 0.28125 0  1.21875 0.28125 0  1.25 0.28125 0  1.28125 0.28125 0  1.3125 0.28125 0  1.34375 0.28125 0  1.375 0.28125 0  1.40625 0.28125 0  1.4375 0.28125 0  1.46875 0.28125 0  1.5 0.28125 0  0 0.3125 0  0.03125 0.3125 0  0.0625 0.3125 0  0.09375 0.3125 0  0.125 0.3125 0  0.15625 0.3125 0  0.1875 0.3125 0  0.21875 0.3125 0  0.25 0.3125 0  0.28125 0.3125 0  0.3125 0.3125 0  0.34375 0.3125 0  0.375 0.3125 0  0.40625 0.3125 0  0.4375 0.3125 0  0.46875 0.3125 0  0.5 0.3125 0  0.53125 0.3125 0  0.5625 0.3125 0  0.59375 0.3125 0  0.625 0.3125 0  0.65625 0.3125 0  0.6875 0.3125 0  0.71875 0.3125 0  0.75 0.3125 0  0.78125 0.3125 0  0.8125 0.3125 0  0.84375 0.3125 0  0.875 0.3125 0  0.90625 0.3125 0  0.9375 0.3125 0  0.96875 0.3125 0  1 0.3125 0  1.03125 0.3125 0  1.0625 0.3125 0  1.09375 0.3125 0  1.125 0.3125 0  1.15625 0.3125 0  1.1875 0.3125 0  1.21875 0.3125 0  1.25 0.3125 0  1.28125 0.3125 0  1.3125 0.3125 0  1.34375 0.3125 0  1.375 0.3125 0  1.40625 0.3125 0  1.4375 0.3125 0  1.46875 0.3125 0  1.5 0.3125 0  0 0.34375 0  0.03125 0.34375 0  0.0625 0.34375 0  0.09375 0.34375 0  0.125 0.34375 0  0.15625 0.34375 0  0.1875 0.34375 0  0.21875 0.34375 0  0.25 0.34375 0  0.28125 0.34375 0  0.3125 0.34375 0  0.34375 0.34375 0  0.375 0.34375 0  0.40625 0.34375 0  0.4375 0.34375 0  0.46875 0.34375 0  0.5 0.34375 0  0.53125 0.34375 0  0.5625 0.34375 0  0.59375 0.34375 0  0.625 0.34375 0  0.65625 0.34375 0  0.6875 0.34375 0  0.71875 0.34375 0  0.75 0.34375 0  0.78125 0.34375 0  0.8125 0.34375 0  0.84375 0.34375 0  0.875 0.34375 0  0.90625 0.34375 0  0.9375 0.34375 0  0.96875 0.34375 0  1 0.34375 0  1.03125 0.34375 0  1.0625 0.34375 0  1.09375 0.34375 0  1.125 0.34375 0  1.15625 0.34375 0  1.1875 0.34375 0  1.21875 0.34375 0  1.25 0.34375 0  1.28125 0.34375 0  1.3125 0.34375 0  1.34375 0.34375 0  1.375 0.34375 0  1
[...]
<PointData  Vectors="f_17"> 
<DataArray  type="Float64"  Name="f_17"  NumberOfComponents="3" format="ascii">0.0000000000000000e+00 0.0000000000000000e+00 0.0000000000000000e+00  0.0000000000000000e+00 0.0000000000000000e+00 0.0000000000000000e+00  0.0000000000000000e+00 0.0000000000000000e+00 0.0000000000000000e+00  0.0000000000000000e+00 0.0000000000000000e+00 0.0000000000000000e+00  0.0000000000000000e+00 0.0000000000000000e+00 0.0000000000000000e+00  0.0000000000000000e+00 0.0000000000000000e+00 0.0000000000000000e+00  0.0000000000000000e+00 0.0000000000000000e+00 0.0000000000000000e+00  0.0000000000000000e+00 0.0000000000000000e+00 0.0000000000000000e+00  0.0000000000000000e+00 0.0000000000000000e+00 0.0000000000000000e+00  0.0000000000000000e+00 0.0000000000000000e+00 0.0000000000000000e+00  0.0000000000000000e+00 0.0000000000000000e+00 0.0000000000000000e+00  0.0000000000000000e+00 0.0000000000000000e+00 0.0000000000000000e+00  0.0000000000000000e+00 0.0000000000000000e+00 0.0000000000000000e+00  0.0000000000000000e+00 0.0000000000000000e+00 0.0000000000000000e+00  0.0000000000000000e+00 0.0000000000000000e+00 0.0000000000000000e+00  0.0000000000000000e+00 0.0000000000000000e+00 0.0000000000000000e+00  0.0000000000000000e+00 0.0000000000000000e+00 0.0000000000000000e+00  0.0000000000000000e+00 0.0000000000000000e+00 0.0000000000000000e+00  0.0000000000000000e+00 0.0000000000000000e+00 0.0000000000000000e+00  0.0000000000000000e+00 0.0000000000000000e+00 0.0000000000000000e+00  0.0000000000000000e+00 0.0000000000000000e+00 0.0000000000000000e+00  0.0000000000000000e+00 0.0000000000000000e+00 0.0000000000000000e+00  0.0000000000000000e+00 0.0000000000000000e+00 0.0000000000000000e+00  0.0000000000000000e+00 0.0000000000000000e+00 0.0000000000000000e+00  0.0000000000000000e+00 0.0000000000000000e+00 0.0000000000000000e+00  0.0000000000000000e+00 0.0000000000000000e+00 0.0000000000000000e+00  0.0000000000000000e+00 0.0000000000000000e+00 0.0000000000000000e+00  0.0000000000000000e+00 0.0000000000000000e+00 0.0000000000000000e+00  0.0000000000000000e+00 0.0000000000000000e+00 0.0000000000000000e+00  0.0000000000000000e+00 0.0000000000000000e+00 0.0000000000000000e+00  0.0000000000000000e+00 0.0000000000000000e+00 0.0000000000000000e+00  0.0000000000000000e+00 0.0000000000000000e+00 0.0000000000000000e+00  0.0000000000000000e+00 0.0000000000000000e+00 0.0000000000000000e+00  0.0000000000000000e+00 0.0000000000000000e+00 0.0000000000000000e+00  0.0000000000000000e+00 0.0000000000000000e+00 0.0000000000000000e+00  0.0000000000000000e+00 0.0000000000000000e+00 0.0000000000000000e+00  0.0000000000000000e+00 0.0000000000000000e+00 0.0000000000000000e+00  0.0000000000000000e+00 0.0000000000000000e+00 0.0000000000000000e+00  0.0000000000000000e+00 0.0000000000000000e+00 0.0000000000000000e+00  0.0000000000000000e+00 0.0000000000000000e+00 0.0000000000000000e+00  0.0000000000000000e+00 0.0000000000000000e+00 0.0000000000000000e+00  0.0000000000000000e+00 0.0000000000000000e+00 0.0000000000000000e+00  0.0000000000000000e+00 0.0000000000000000e+00 0.0000000000000000e+00  0.0000000000000000e+00 0.0000000000000000e+00 0.0000000000000000e+00  0.0000000000000000e+00 0.0000000000000000e+00 0.0000000000000000e+00  0.0000000000000000e+00 0.0000000000000000e+00 0.0000000000000000e+00  0.0000000000000000e+00 0.0000000000000000e+00 0.0000000000000000e+00  0.0000000000000000e+00 0.0000000000000000e+00 0.0000000000000000e+00  0.0000000000000000e+00 0.0000000000000000e+00 0.0000000000000000e+00  0.0000000000000000e+00 0.0000000000000000e+00 0.0000000000000000e+00  1.1482322020633550e-07 -7.5094569151553726e-08 0.0000000000000000e+00  -1.3368784633976715e-07 8.2388222617821684e-08 0.0000000000000000e+00  -2.3745283213115137e-08 -1.5686461184403546e-08 0.0000000000000000e+00  -2.0716733689006745e-07 -4.5655821261825714e-08 0.0000000000000000e+00  -1.9226466950079449e-07 -7.0153079390618496e-08 0.0000000000000000e+00  -1.8314502776049658e-07 -7.4938790205004062e-08 0.0000000000000000e+00  -1.7813544118561159e-07 -6.8206216965584325e-08 0.0000000000000000e+00  -1.6219778806231124e-07 -5.9192694423175934e-08 0.0000000000000000e+00  -1.4713854378245750e-07 -4.9197226856747118e-08 0.0000000000000000e+00  -1.3311023545151143e-07 -3.9323606885533489e-08 0.0000000000000000e+00  -1.2138504405592029e-07 -2.9968224403878749e-08 0.0000000000000000e+00  -1.1317592968030196e-07 -2.1194354556944020e-08 0.0000000000000000e+00  -1.0890116637063017e-07 -1.3007305676860172e-08 0.0000000000000000e+00  -1.0888159742617669e-07 -5.3467579681007678e-09 0.0000000000000000e+00  -1.1330283498211061e-07 1.8810268930803628e-09 0.0000000000000000e+00  -1.2228204834664318e-07 8.7761858653222594e-09 0.0000000000000000e+00  -1.3591387923283307e-07 1.5416260340582648e-08 0.0000000000000000e+00  -1.5426012831607637e-07 2.1822438094500785e-08 0.0000000000000000e+00  -1.7731269706496119e-07 2.7927995808424896e-08 0.0000000000000000e+00  -2.0492679485099689e-07 3.3558436947229416e-08 0.0000000000000000e+00  -2.3673831313347562e-07 3.8433473213405437e-08 0.0000000000000000e+00  -2.7208904914452091e-07 4.2197295189774048e-08 0.0000000000000000e+00  -3.0998253815718498e-07 4.4475087352158333e-08 0.0000000000000000e+00  -3.4909665409888544e-07 4.4943654849393923e-08 0.0000000000000000e+00  -3.8785037706354300e-07 4.3397259636803216e-08 0.0000000000000000e+00  -4.2453561549266929e-07 3.9789032097081877e-08 0.0000000000000000e+00  -4.5744471723114275e-07 3.4238690199638956e-08 0.0000000000000000e+00  -4.8505065986316572e-07 2.7001579861049437e-08 0.0000000000000000e+00  -5.0602691960563791e-07 1.8423843479609506e-08 0.0000000000000000e+00  -5.1947441111791513e-07 8.8658194120904723e-09 0.0000000000000000e+00  -5.2456342482776974e-07 -1.3097987835714372e-09 0.0000000000000000e+00  -5.2124429064434021e-07 -1.1866421414961693e-08 0.0000000000000000e+00  -5.0864049620445367e-07 -2.2492825017706160e-08 0.0000000000000000e+00  -4.8819842124370147e-07 -3.3286556615357859e-08 0.0000000000000000e+00  -4.5698529907736398e-07 -4.3635776329500107e-08 0.0000000000000000e+00  -4.2140952449952173e-07 -5.4638292782127072e-08 0.0000000000000000e+00  -3.6881936855730250e-07 -6.3640464274011342e-08 0.0000000000000000e+00  -3.2597519008552326e-07 -7.6077547344668518e-08 0.0000000000000000e+00  -2.3908579344581837e-07 -7.9511723633504840e-08 0.0000000000000000e+00  -2.1925455313755800e-07 -9.9387248138677599e-08 0.0000000000000000e+00  -4.3085812691940102e-08 -7.9335992616862769e-08 0.0000000000000000e+00  -1.6433944620790953e-07 -1.3392936288366349e-07 0.0000000000000000e+00  3.1924812389668985e-07 -1.8015000202049505e-08 0.0000000000000000e+00  -4.1977355519434238e-07 -2.2946205138807753e-07 0.0000000000000000e+00  1.1446977176738161e-06 2.3939480329437061e-07 0.0000000000000000e+00  -2.3949156082891868e-06 -7.6149257975347965e-07 0.0000000000000000e+00  2.9241289871777934e-06 1.2956885872032523e-06 0.0000000000000000e+00  0.0000000000000000e+00 0.0000000000000000e+00 0.0000000000000000e+00  0.0000000000000000e+00 0.0000000000000000e+00 0.0000000000000000e+00  -1.3268771817044471e-06 5.6994898727272181e-07 0.0000000000000000e+00  7.7585011273004874e-07 -7.4073007301051328e-08 0.0000000000000000e+00  -6.1044467790562188e-08 9.1810007434755064e-08 0.0000000000000000e+00  -2.0338254003672397e-07 -1.6812960132032379e-08 0.0000000000000000e+00  -2.0972530589988603e-07 -6.2436795229507590e-08 0.0000000000000000e+00  -2.6573407476682713e-07 -8.2847142928647695e-08 0.0000000000000000e+00  -2.6478545396283797e-07 -8.7800037521402838e-08 0.0000000000000000e+00  -2.5490282657307297e-07 -8.4171877368123746e-08 0.0000000000000000e+00  -2.4129705174725656e-07 -7.5504240681263183e-08 0.0000000000000000e+00  -2.2499763440517420e-07 -6.4207329847911217e-08 0.0000000000000000e+00  -2.1046442474892888e-07 -5.1528689865189662e-08 0.0000000000000000e+00  -1.9881404117218243e-07 -3.8242414220717972e-08 0.0000000000000000e+00  -1.9093501577382014e-07 -2.4813977971260760e-08 0.0000000000000000e+00  -1.8738979704137260e-07 -1.1479400069152913e-08 0.0000000000000000e+00  -1.8843411138190888e-07 1.6744865973627696e-09 0.0000000000000000e+00  -1.9422645102309229e-07 1.4643703065545537e-08 0.0000000000000000e+00  -2.0485676571894898e-07 2.7437781908299234e-08 0.0000000000000000e+00  -2.2036577792880505e-07 4.0002579871117574e-08 0.0000000000000000e+00  -2.4072005548497553e-07 5.2145587733023709e-08 0.0000000000000000e+00  -2.6574336745943960e-07 6.3481709096002108e-08 0.0000000000000000e+00  -2.9502340415510292e-07 7.3421835479300678e-08 0.0000000000000000e+00  -3.2782126754108478e-07 8.1221348615534834e-08 0.0000000000000000e+00  -3.6301656268062395e-07 8.6088269662839723e-08 0.0000000000000000e+00  -3.9912502579758571e-07 8.7327803871237522e-08 0.0000000000000000e+00  -4.3438847963567472e-07 8.4482675110378903e-08 0.0000000000000000e+00  -4.6694631414028142e-07 7.7425721922859762e-08 0.0000000000000000e+00  -4.9500026381342959e-07 6.6380256986328751e-08 0.0000000000000000e+00  -5.1702712781352340e-07 5.1861670092043456e-08 0.0000000000000000e+00  -5.3179560481203807e-07 3.4578324008597614e-08 0.0000000000000000e+00  -5.3859665247182969e-07 1.5290887109571588e-08 0.0000000000000000e+00  -5.3682576062812686e-07 -5.2527937435899247e-09 0.0000000000000000e+00  -5.2672513716777372e-07 -2.6481943141381509e-08 0.0000000000000000e+00  -5.0764696820005662e-07 -4.7813786686287037e-08 0.0000000000000000e+00  -4.8139006785832297e-07 -6.9121226697031406e-08 0.0000000000000000e+00  -4.4516386967126064e-07 -8.9620613575647037e-08 0.0000000000000000e+00  -4.0590960686934783e-07 -1.1016187053074769e-07 0.0000000000000000e+00  -3.5097774382169518e-07 -1.2800172994783594e-07 0.0000000000000000e+00  -3.0811486362887621e-07 -1.4787485458749119e-07 0.0000000000000000e+00  -2.2347527266659300e-07 -1.5782689488498512e-07 0.0000000000000000e+00  -2.0954946163779066e-07 -1.8045412411479158e-07 0.0000000000000000e+00  -4.4211941435413326e-08 -1.6381698037425886e-07 0.0000000000000000e+00  -1.8023877707056408e-07 -2.1033876254164813e-07 0.0000000000000000e+00  2.7289966991867180e-07 -1.0076630721287340e-07 0.0000000000000000e+00  -4.8587354277341142e-07 -2.8141910688076140e-07 0.0000000000000000e+00  9.6627343364364789e-07 1.4475758349647611e-07 0.0000000000000000e+00  -2.4208943064889014e-06 -6.4424482762119490e-07 0.0000000000000000e+00  2.7829838401513314e-06 1.3041068697019950e-06 0.0000000000000000e+00  0.0000000000000000e+00 0.0000000000000000e+00 0.0000000000000000e+00  0.0000000000000000e+00 0.0000000000000000e+00 0.0000000000000000e+00  -2.4416824054608976e-06 1.0281929195678843e-06 0.0000000000000000e+00  1.7042842384822024e-06 -1.8944388410465120e-07 0.0000000000000000e+00  -3.5199024997683738e-07 2.3511968228506302e-07 0.0000000000000000e+00  6.5135443538836555e-08 -6.5365208446105357e-09 0.0000000000000000e+00  -7.0329434840466344e-08 -2.5994731785039952e-08 0.0000000000000000e+00  -1.2330277735570393e-07 -7.2598057529722554e-08 0.0000000000000000e+00  -1.3737243970783798e-07 -8.8305534005312022e-08 0.0000000000000000e+00  -1.6306278394867125e-07 -9.1314024895109889e-08 0.0000000000000000e+00  -1.7419404918586348e-07 -8.5487589995760467e-08 0.0000000000000000e+00  -1.8090323503707804e-07 -7.4236735606196900e-08 0.0000000000000000e+00  -1.8526832238287315e-07 -5.9892275371968943e-08 0.0000000000000000e+00  -1.8833815213858200e-07 -4.3886894225524091e-08 0.0000000000000000e+00  -1.9180410441247134e-07 -2.7129549309166474e-08 0.0000000000000000e+00  -1.9648444752303507e-07 -1.0136395858752350e-08 0.0000000000000000e+00  -2.0300550015093375e-07 6.8445818910973737e-09 0.0000000000000000e+00  -2.1182344356423482e-07 2.3734166460010719e-08 0.0000000000000000e+00  -2.2326985253891720e-07 4.0517167302160933e-08 0.0000000000000000e+00  -2.3761013876071928e-07 5.7122219305013852e-08 0.0000000000000000e+00  -2.5502616210597020e-07 7.3298766495471259e-08 0.0000000000000000e+00  -2.7555433015496260e-07 8.8517233340835956e-08 0.0000000000000000e+00  -2.9898278976499913e-07 1.0193271010207633e-07 0.0000000000000000e+00  -3.2474256027860269e-07 1.1244683604793632e-07 0.0000000000000000e+00  -3.5184011021164699e-07 1.1887384314518778e-07 0.0000000000000000e+00  -3.7888382458250309e-07 1.2017396735246075e-07 0.0000000000000000e+00  -4.0421004507237743e-07 1.1568286469560484e-07 0.0000000000000000e+00  -4.2611025233166603e-07 1.0525974058307084e-07 0.0000000000000000e+00  -4.4304604974601373e-07 8.9310380828324622e-08 0.0000000000000000e+00  -4.5389067588251575e-07 6.8681409835307397e-08 0.0000000000000000e+00  -4.5792986583578357e-07 4.4486344067883030e-08 0.0000000000000000e+00  -4.5506319123568510e-07 1.7888071796140340e-08 0.0000000000000000e+00  -4.4531177594762932e-07 -1.0019683239970740e-08 0.0000000000000000e+00  -4.2955575667938183e-07 -3.8405757287555991e-08 0.0000000000000000e+00  -4.0768958565377036e-07 -6.6502872054036833e-08 0.0000000000000000e+00  -3.8210069646263653e-07 -9.4064693248775483e-08 0.0000000000000000e+00  -3.5036949634261769e-07 -1.2020349757450588e-07 0.0000000000000000e+00  -3.2010108610104990e-07 -1.4566353771762081e-07 0.0000000000000000e+00  -2.7876598134460173e-07 -1.6757448375734901e-07 0.0000000000000000e+00  -2.5510693588991151e-07 -1.9037446358070455e-07 0.0000000000000000e+00  -1.9496598840074665e-07 -2.0218799461312447e-07 0.0000000000000000e+00  -2.1198017141732033e-07 -2.2444158057966285e-07 0.0000000000000000e+00  -8.4174189861243639e-08 -2.0788460921899012e-07 0.0000000000000000e+00  -2.6058280563940567e-07 -2.4894083695584785e-07 0.0000000000000000e+00  1.3749612368459249e-07 -1.4782292286209928e-07 0.0000000000000000e+00  -6.5066762117050883e-07 -3.1304310149787329e-07 0.0000000000000000e+00  7.1765673670277434e-07 5.7297769230282778e-08 0.0000000000000000e+00  -2.6008724413996007e-06 -6.2194174786504177e-07 0.0000000000000000e+00  2.4148300482413412e-06 1.0742516615533564e-06 0.0000000000000000e+00  0.0000000000000000e+00 0.0000000000000000e+00 0.0000000000000000e+00  0.0000000000000000e+00 0.0000000000000000e+00 0.0000000000000000e+00  -2.7116231817218010e-06 1.0675605166994835e-06 0.0000000000000000e+00  2.2985511907761461e-06 -2.3195514756395093e-07 0.0000000000000000e+00  -6.7643367648017120e-07 2.9964898607425360e-07 0.0000000000000000e+00  3.1380189545872584e-07 -7.1588230524148120e-09 0.0000000000000000e+00  -1.0583489875989759e-07 3.4841812986580442e-08 0.0000000000000000e+00  -4.3546384888387705e-08 -4.0111510003390155e-08 0.0000000000000000e+00  -8.7009422254028705e-08 -5.6868697664868318e-08 0.0000000000000000e+00  -1.1928358763442972e-07 -7.0742329687291415e-08 0.0000000000000000e+00  -1.3740358718117192e-07 -7.1288035316390964e-08 0.0000000000000000e+00  -1.5538421432949875e-07 -6.4685496257934515e-08 0.0000000000000000e+00  -1.6833093218006554e-07 -5.3021579043331696e-08 0.0000000000000000e+00  -1.7906410925646833e-07 -3.8173051423371287e-08 0.0000000000000000e+00  -1.8868313008803506e-07 -2.1472373495694969e-08 0.0000000000000000e+00  -1.9787023884520375e-07 -3.7471591679246191e-09 0.0000000000000000e+00  -2.0734170755526109e-07 1.4515240011879376e-08 0.0000000000000000e+00  -2.1756204491451773e-07 3.3093153696576466e-08 0.0000000000000000e+00  -2.2893046050000500e-07 5.1898925422776974e-08 0.0000000000000000e+00  -2.4180991996913925e-07 7.0822829635217695e-08 0.0000000000000000e+00  -2.5651807576966297e-07 8.9553053968110829e-08 0.0000000000000000e+00  -2.7326067704583636e-07 1.0741045606286253e-07 0.0000000000000000e+00  -2.9199481911458785e-07 1.2326682781270677e-07 0.0000000000000000e+00  -3.1227300077444668e-07 1.3561324328017215e-07 0.0000000000000000e+00  -3.3313783055842663e-07 1.4280115001626073e-07 0.0000000000000000e+00  -3.5315152031869548e-07 1.4340073910740511e-07 0.0000000000000000e+00  -3.7057824285071431e-07 1.3655441504858461e-07 0.0000000000000000e+00  -3.8370707590062310e-07 1.2219268079156374e-07 0.0000000000000000e+00  -3.9115273495699108e-07 1.0104085626373063e-07 0.0000000000000000e+00  -3.9214453029070032e-07 7.4426357695081687e-08 0.0000000000000000e+00  -3.8649226219421154e-07 4.3988340806918220e-08 0.0000000000000000e+00  -3.7473919401015293e-07 1.1359020634176688e-08 0.0000000000000000e+00  -3.5753523889050283e-07 -2.2013745628952204e-08 0.0000000000000000e+00  -3.3639069205119724e-07 -5.5070069524171511e-08 0.0000000000000000e+00  -3.1161268249479357e-07 -8.6917566423746587e-08 0.0000000000000000e+00  -2.8610751064298274e-07 -1.1723678349974925e-07 0.0000000000000000e+00  -2.5743620200676355e-07 -1.4510220015015552e-07 0.0000000000000000e+00  -2.3389403256909259e-07 -1.7114746128544404e-07 0.0000000000000000e+00  -2.0200715982177343e-07 -1.9250392727173676e-07 0.0000000000000000e+00  -1.9231206045075220e-07 -2.1323129445983274e-07 0.0000000000000000e+00  -1.4697419575750802e-07 -2.2201703610069937e-07 0.0000000000000000e+00  -1.8531544740232487e-07 -2.3890180143954173e-07 0.0000000000000000e+00  -7.3281824716599724e-08 -2.1870363695601713e-07 0.0000000000000000e+00  -2.7767376216755488e-07 -2.5126132795830649e-07 0.0000000000000000e+00  1.1536249850961748e-07 -1.5695331916872826e-07 0.0000000000000000e+00  -7.0393550883342325e-07 -3.0718878123612172e-07 0.0000000000000000e+00  6.8708671566481831e-07 1.5356901183803792e-08 0.0000000000000000e+00  -2.6370973386488954e-06 -5.8479695090059512e-07 0.0000000000000000e+00  2.4076463532494202e-06 9.1197858211284484e-07 0.0000000000000000e+00  0.0000000000000000e+00 0.0000000000000000e+00 0.0000000000000000e+00  0.0000000000000000e+00 0.0000000000000000e+00 0.0000000000000000e+00  -2.6671587143758400e-06 9.6542137522665610e-07 0.0000000000000000e+00  2.5334232548383085e-06 -2.2018738870638282e-07 0.0000000000000000e+00  -8.3035567040672071e-07 2.9035593465286698e-07 0.0000000000000000e+00  5.0998857894025703e-07 -5.4831556518907911e-09 0.0000000000000000e+00  -1.6959088956044662e-07 7.8990615522319706e-08 0.0000000000000000e+00  5.3642499044586387e-08 -1.2307662632609074e-08 0.0000000000000000e+00  -5.4203418462854186e-08 -2.0428892339536875e-08 0.0000000000000000e+00  -6.5049466647998163e-08 -4.4003657804771656e-08 0.0000000000000000e+00  -9.2512225857065070e-08 -4.8112634953850067e-08 0.0000000000000000e+00  -1.1696183350047433e-07 -4.6392421703631932e-08 0.0000000000000000e+00  -1.3598680021067533e-07 -3.7889447548383837e-08 0.0000000000000000e+00  -1.5340260360258946e-07 -2.5266991105819380e-08 0.0000000000000000e+00  -1.6855106933675634e-07 -9.8899795671899717e-09 0.0000000000000000e+00  -1.8234825690710806e-07 7.1869195758214901e-09 0.0000000000000000e+00  -1.9532362774396445e-07 2.5297190360337096e-08 0.0000000000000000e+00  -2.0786942742684791e-07 4.4119125394607394e-08 0.0000000000000000e+00  -2.2040043438688354e-07 6.3533558519528720e-08 0.0000000000000000e+00  -2.3333064767581135e-07 8.3452638003363181e-08 0.0000000000000000e+00  -2.4710466158894757e-07 1.0357087964283355e-07 0.0000000000000000e+00  -2.6211049351237515e-07 1.2310639630129981e-07 0.0000000000000000e+00  -2.7848945533079864e-07 1.4063705431364243e-07 0.0000000000000000e+00  -2.9589633712186400e-07 1.5416067045116995e-07 0.0000000000000000e+00  -3.1332090681137948e-07 1.6144221604547012e-07 0.0000000000000000e+00  -3.2911493295558780e-07 1.6056628198614754e-07 0.0000000000000000e+00  -3.4127001075367803e-07 1.5048236926653231e-07 0.0000000000000000e+00  -3.4790388409500945e-07 1.3131139770275411e-07 0.0000000000000000e+00  -3.4770530490123781e-07 1.0430064987490805e-07 0.0000000000000000e+00  -3.4028294315740742e-07 7.1472600482165497e-08 0.0000000000000000e+00  -3.2606520722982623e-07 3.5149792530292514e-08 0.0000000000000000e+00  -3.0634252307803383e-07 -2.5031829846054266e-09 0.0000000000000000e+00  -2.8246616002780603e-07 -3.9715127757203759e-08 0.0000000000000000e+00  -2.5657080195739363e-07 -7.5298262878925155e-08 0.0000000000000000e+00  -2.2933129466982342e-07 -1.0836917335951852e-07 0.0000000000000000e+00  -2.0401226181292895e-07 -1.3868261710299