<?xml version="1.0"?>
<VTKFile type="UnstructuredGrid"  version="0.1"  >
<UnstructuredGrid>
<Piece  NumberOfPoints="1617" NumberOfCells="3072">
<Points>
<DataArray  type="Float64"  NumberOfComponents="3"  format="ascii">0 0 0  0.03125 0 0  0.0625 0 0  0.09375 0 0  0.125 0 0  0.15625 0 0  0.1875 0 0  0.21875 0 0  0.25 0 0  0.28125 0 0  0.3125 0 0  0.34375 0 0  0.375 0 0  0.40625 0 0  0.4375 0 0  0.46875 0 0  0.5 0 0  0.53125 0 0  0.5625 0 0  0.59375 0 0  0.625 0 0  0.65625 0 0  0.6875 0 0  0.71875 0 0  0.75 0 0  0.78125 0 0  0.8125 0 0  0.84375 0 0  0.875 0 0  0.90625 0 0  0.9375 0 0  0.96875 0 0  1 0 0  1.03125 0 0  1.0625 0 0  1.09375 0 0  1.125 0 0  1.15625 0 0  1.1875 0 0  1.21875 0 0  1.25 0 0  1.28125 0 0  1.3125 0 0  1.34375 0 0  1.375 0 0  1.40625 0 0  1.4375 0 0  1.46875 0 0  1.5 0 0  0 0.03125 0  0.03125 0.03125 0  0.0625 0.03125 0  0.09375 0.03125 0  0.125 0.03125 0  0.15625 0.03125 0  0.1875 0.03125 0  0.21875 0.03125 0  0.25 0.03125 0  0.28125 0.03125 0  0.3125 0.03125 0  0.34375 0.03125 0  0.375 0.03125 0  0.40625 0.03125 0  0.4375 0.03125 0  0.46875 0.03125 0  0.5 0.03125 0  0.53125 0.03125 0  0.5625 0.03125 0  0.59375 0.03125 0  0.625 0.03125 0  0.65625 0.03125 0  0.6875 0.03125 0  0.71875 0.03125 0  0.75 0.03125 0  0.78125 0.03125 0  0.8125 0.03125 0  0.84375 0.03125 0  0.875 0.03125 0  0.90625 0.03125 0  0.9375 0.03125 0  0.96875 0.03125 0  1 0.03125 0  1.03125 0.03125 0  1.0625 0.03125 0  1.09375 0.03125 0  1.125 0.03125 0  1.15625 0.03125 0  1.1875 0.03125 0  1.21875 0.03125 0  1.25 0.03125 0  1.28125 0.03125 0  1.3125 0.03125 0  1.34375 0.03125 0  1.375 0.03125 0  1.40625 0.03125 0  1.4375 0.03125 0  1.46875 0.03125 0  1.5 0.03125 0  0 0.0625 0  0.03125 0.0625 0  0.0625 0.0625 0  0.09375 0.0625 0  0.125 0.0625 0  0.15625 0.0625 0  0.1875 0.0625 0  0.21875 0.0625 0  0.25 0.0625 0  0.28125 0.0625 0  0.3125 0.0625 0  0.34375 0.0625 0  0.375 0.0625 0  0.40625 0.0625 0  0.4375 0.0625 0  0.46875 0.0625 0  0.5 0.0625 0  0.53125 0.0625 0  0.5625 0.0625 0  0.59375 0.0625 0  0.625 0.0625 0  0.65625 0.0625 0  0.6875 0.0625 0  0.71875 0.0625 0  0.75 0.0625 0  0.78125 0.0625 0  0.8125 0.0625 0  0.84375 0.0625 0  0.875 0.0625 0  0.90625 0.0625 0  0.9375 0.0625 0  0.96875 0.0625 0  1 0.0625 0  1.03125 0.0625 0  1.0625 0.0625 0  1.09375 0.0625 0  1.125 0.0625 0  1.15625 0.0625 0  1.1875 0.0625 0  1.21875 0.0625 0  1.25 0.0625 0  1.28125 0.0625 0  1.3125 0.0625 0  1.34375 0.0625 0  1.375 0.0625 0  1.40625 0.0625 0  1.4375 0.0625 0  1.46875 0.0625 0  1.5 0.0625 0  0 0.09375 0  0.03125 0.09375 0  0.0625 0.09375 0  0.09375 0.09375 0  0.125 0.09375 0  0.15625 0.09375 0  0.1875 0.09375 0  0.21875 0.09375 0  0.25 0.09375 0  0.28125 0.09375 0  0.3125 0.09375 0  0.34375 0.09375 0  0.375 0.09375 0  0.40625 0.09375 0  0.4375 0.09375 0  0.46875 0.09375 0  0.5 0.09375 0  0.53125 0.09375 0  0.5625 0.09375 0  0.59375 0.09375 0  0.625 0.09375 0  0.65625 0.09375 0  0.6875 0.09375 0  0.71875 0.09375 0  0.75 0.09375 0  0.78125 0.09375 0  0.8125 0.09375 0  0.84375 0.09375 0  0.875 0.09375 0  0.90625 0.09375 0  0.9375 0.09375 0  0.96875 0.09375 0  1 0.09375 0  1.03125 0.09375 0  1.0625 0.09375 0  1.09375 0.09375 0  1.125 0.09375 0  1.15625 0.09375 0  1.1875 0.09375 0  1.21875 0.09375 0  1.25 0.09375 0  1.28125 0.09375 0  1.3125 0.09375 0  1.34375 0.09375 0  1.375 0.09375 0  1.40625 0.09375 0  1.4375 0.09375 0  1.46875 0.09375 0  1.5 0.09375 0  0 0.125 0  0.03125 0.125 0  0.0625 0.125 0  0.09375 0.125 0  0.125 0.125 0  0.15625 0.125 0  0.1875 0.125 0  0.21875 0.125 0  0.25 0.125 0  0.28125 0.125 0  0.3125 0.125 0  0.34375 0.125 0  0.375 0.125 0  0.40625 0.125 0  0.4375 0.125 0  0.46875 0.125 0  0.5 0.125 0  0.53125 0.125 0  0.5625 0.125 0  0.59375 0.125 0  0.625 0.125 0  0.65625 0.125 0  0.6875 0.125 0  0.71875 0.125 0  0.75 0.125 0  0.78125 0.125 0  0.8125 0.125 0  0.84375 0.125 0  0.875 0.125 0  0.90625 0.125 0  0.9375 0.125 0  0.96875 0.125 0  1 0.125 0  1.03125 0.125 0  1.0625 0.125 0  1.09375 0.125 0  1.125 0.125 0  1.15625 0.125 0  1.1875 0.125 0  1.21875 0.125 0  1.25 0.125 0  1.28125 0.125 0  1.3125 0.125 0  1.34375 0.125 0  1.375 0.125 0  1.40625 0.125 0  1.4375 0.125 0  1.46875 0.125 0  1.5 0.125 0  0 0.15625 0  0.03125 0.15625 0  0.0625 0.15625 0  0.09375 0.15625 0  0.125 0.15625 0  0.15625 0.15625 0  0.1875 0.15625 0  0.21875 0.15625 0  0.25 0.15625 0  0.28125 0.15625 0  0.3125 0.15625 0  0.34375 0.15625 0  0.375 0.15625 0  0.40625 0.15625 0  0.4375 0.15625 0  0.46875 0.15625 0  0.5 0.15625 0  0.53125 0.15625 0  0.5625 0.15625 0  0.59375 0.15625 0  0.625 0.15625 0  0.65625 0.15625 0  0.6875 0.15625 0  0.71875 0.15625 0  0.75 0.15625 0  0.78125 0.15625 0  0.8125 0.15625 0  0.84375 0.15625 0  0.875 0.15625 0  0.90625 0.15625 0  0.9375 0.15625 0  0.96875 0.15625 0  1 0.15625 0  1.03125 0.15625 0  1.0625 0.15625 0  1.09375 0.15625 0  1.125 0.15625 0  1.15625 0.15625 0  1.1875 0.15625 0  1.21875 0.15625 0  1.25 0.15625 0  1.28125 0.15625 0  1.3125 0.15625 0  1.34375 0.15625 0  1.375 0.15625 0  1.40625 0.15625 0  1.4375 0.15625 0  1.46875 0.15625 0  1.5 0.15625 0  0 0.1875 0  0.03125 0.1875 0  0.0625 0.1875 0  0.09375 0.1875 0  0.125 0.1875 0  0.15625 0.1875 0  0.1875 0.1875 0  0.21875 0.1875 0  0.25 0.1875 0  0.28125 0.1875 0  0.3125 0.1875 0  0.34375 0.1875 0  0.375 0.1875 0  0.40625 0.1875 0  0.4375 0.1875 0  0.46875 0.1875 0  0.5 0.1875 0  0.53125 0.1875 0  0.5625 0.1875 0  0.59375 0.1875 0  0.625 0.1875 0  0.65625 0.1875 0  0.6875 0.1875 0  0.71875 0.1875 0  0.75 0.1875 0  0.78125 0.1875 0  0.8125 0.1875 0  0.84375 0.1875 0  0.875 0.1875 0  0.90625 0.1875 0  0.9375 0.1875 0  0.96875 0.1875 0  1 0.1875 0  1.03125 0.1875 0  1.0625 0.1875 0  1.09375 0.1875 0  1.125 0.1875 0  1.15625 0.1875 0  1.1875 0.1875 0  1.21875 0.1875 0  1.25 0.1875 0  1.28125 0.1875 0  1.3125 0.1875 0  1.34375 0.1875 0  1.375 0.1875 0  1.40625 0.1875 0  1.4375 0.1875 0  1.46875 0.1875 0  1.5 0.1875 0  0 0.21875 0  0.03125 0.21875 0  0.0625 0.21875 0  0.09375 0.21875 0  0.125 0.21875 0  0.15625 0.21875 0  0.1875 0.21875 0  0.21875 0.21875 0  0.25 0.21875 0  0.28125 0.21875 0  0.3125 0.21875 0  0.34375 0.21875 0  0.375 0.21875 0  0.40625 0.21875 0  0.4375 0.21875 0  0.46875 0.21875 0  0.5 0.21875 0  0.53125 0.21875 0  0.5625 0.21875 0  0.59375 0.21875 0  0.625 0.21875 0  0.65625 0.21875 0  0.6875 0.21875 0  0.71875 0.21875 0  0.75 0.21875 0  0.78125 0.21875 0  0.8125 0.21875 0  0.84375 0.21875 0  0.875 0.21875 0  0.90625 0.21875 0  0.9375 0.21875 0  0.96875 0.21875 0  1 0.21875 0  1.03125 0.21875 0  1.0625 0.21875 0  1.09375 0.21875 0  1.125 0.21875 0  1.15625 0.21875 0  1.1875 0.21875 0  1.21875 0.21875 0  1.25 0.21875 0  1.28125 0.21875 0  1.3125 0.21875 0  1.34375 0.21875 0  1.375 0.21875 0  1.40625 0.21875 0  1.4375 0.21875 0  1.46875 0.21875 0  1.5 0.21875 0  0 0.25 0  0.03125 0.25 0  0.0625 0.25 0  0.09375 0.25 0  0.125 0.25 0  0.15625 0.25 0  0.1875 0.25 0  0.21875 0.25 0  0.25 0.25 0  0.28125 0.25 0  0.3125 0.25 0  0.34375 0.25 0  0.375 0.25 0  0.40625 0.25 0  0.4375 0.25 0  0.46875 0.25 0  0.5 0.25 0  0.53125 0.25 0  0.5625 0.25 0  0.59375 0.25 0  0.625 0.25 0  0.65625 0.25 0  0.6875 0.25 0  0.71875 0.25 0  0.75 0.25 0  0.78125 0.25 0  0.8125 0.25 0  0.84375 0.25 0  0.875 0.25 0  0.90625 0.25 0  0.9375 0.25 0  0.96875 0.25 0  1 0.25 0  1.03125 0.25 0  1.0625 0.25 0  1.09375 0.25 0  1.125 0.25 0  1.15625 0.25 0  1.1875 0.25 0  1.21875 0.25 0  1.25 0.25 0  1.28125 0.25 0  1.3125 0.25 0  1.34375 0.25 0  1.375 0.25 0  1.40625 0.25 0  1.4375 0.25 0  1.46875 0.25 0  1.5 0.25 0  0 0.28125 0  0.03125 0.28125 0  0.0625 0.28125 0  0.09375 0.28125 0  0.125 0.28125 0  0.15625 0.28125 0  0.1875 0.28125 0  0.21875 0.28125 0  0.25 0.28125 0  0.28125 0.28125 0  0.3125 0.28125 0  0.34375 0.28125 0  0.375 0.28125 0  0.40625 0.28125 0  0.4375 0.28125 0  0.46875 0.28125 0  0.5 0.28125 0  0.53125 0.28125 0  0.5625 0.28125 0  0.59375 0.28125 0  0.625 0.28125 0  0.65625 0.28125 0  0.6875 0.28125 0  0.71875 0.28125 0  0.75 0.28125 0  0.78125 0.28125 0  0.8125 0.28125 0  0.84375 0.28125 0  0.875 0.28125 0  0.90625 0.28125 0  0.9375 0.28125 0  0.96875 0.28125 0  1 0.28125 0  1.03125 0.28125 0  1.0625 0.28125 0  1.09375 0.28125 0  1.125 0.28125 0  1.15625 0.28125 0  1.1875 0.28125 0  1.21875 0.28125 0  1.25 0.28125 0  1.28125 0.28125 0  1.3125 0.28125 0  1.34375 0.28125 0  1.375 0.28125 0  1.40625 0.28125 0  1.4375 0.28125 0  1.46875 0.28125 0  1.5 0.28125 0  0 0.3125 0  0.03125 0.3125 0  0.0625 0.3125 0  0.09375 0.3125 0  0.125 0.3125 0  0.15625 0.3125 0  0.1875 0.3125 0  0.21875 0.3125 0  0.25 0.3125 0  0.28125 0.3125 0  0.3125 0.3125 0  0.34375 0.3125 0  0.375 0.3125 0  0.40625 0.3125 0  0.4375 0.3125 0  0.46875 0.3125 0  0.5 0.3125 0  0.53125 0.3125 0  0.5625 0.3125 0  0.59375 0.3125 0  0.625 0.3125 0  0.65625 0.3125 0  0.6875 0.3125 0  0.71875 0.3125 0  0.75 0.3125 0  0.78125 0.3125 0  0.8125 0.3125 0  0.84375 0.3125 0  0.875 0.3125 0  0.90625 0.3125 0  0.9375 0.3125 0  0.96875 0.3125 0  1 0.3125 0  1.03125 0.3125 0  1.0625 0.3125 0  1.09375 0.3125 0  1.125 0.3125 0  1.15625 0.3125 0  1.1875 0.3125 0  1.21875 0.3125 0  1.25 0.3125 0  1.28125 0.3125 0  1.3125 0.3125 0  1.34375 0.3125 0  1.375 0.3125 0  1.40625 0.3125 0  1.4375 0.3125 0  1.46875 0.3125 0  1.5 0.3125 0  0 0.34375 0  0.03125 0.34375 0  0.0625 0.34375 0  0.09375 0.34375 0  0.125 0.34375 0  0.15625 0.34375 0  0.1875 0.34375 0  0.21875 0.34375 0  0.25 0.34375 0  0.28125 0.34375 0  0.3125 0.34375 0  0.34375 0.34375 0  0.375 0.34375 0  0.40625 0.34375 0  0.4375 0.34375 0  0.46875 0.34375 0  0.5 0.34375 0  0.53125 0.34375 0  0.5625 0.34375 0  0.59375 0.34375 0  0.625 0.34375 0  0.65625 0.34375 0  0.6875 0.34375 0  0.71875 0.34375 0  0.75 0.34375 0  0.78125 0.34375 0  0.8125 0.34375 0  0.84375 0.34375 0  0.875 0.34375 0  0.90625 0.34375 0  0.9375 0.34375 0  0.96875 0.34375 0  1 0.34375 0  1.03125 0.34375 0  1.0625 0.34375 0  1.09375 0.34375 0  1.125 0.34375 0  1.15625 0.34375 0  1.1875 0.34375 0  1.21875 0.34375 0  1.25 0.34375 0  1.28125 0.34375 0  1.3125 0.34375 0  1.34375 0.34375 0  1.375 0.34375 0  1
[...]
<PointData  Vectors="f_17"> 
<DataArray  type="Float64"  Name="f_17"  NumberOfComponents="3" format="ascii">0.0000000000000000e+00 0.0000000000000000e+00 0.0000000000000000e+00  0.0000000000000000e+00 0.0000000000000000e+00 0.0000000000000000e+00  0.0000000000000000e+00 0.0000000000000000e+00 0.0000000000000000e+00  0.0000000000000000e+00 0.0000000000000000e+00 0.0000000000000000e+00  0.0000000000000000e+00 0.0000000000000000e+00 0.0000000000000000e+00  0.0000000000000000e+00 0.0000000000000000e+00 0.0000000000000000e+00  0.0000000000000000e+00 0.0000000000000000e+00 0.0000000000000000e+00  0.0000000000000000e+00 0.0000000000000000e+00 0.0000000000000000e+00  0.0000000000000000e+00 0.0000000000000000e+00 0.0000000000000000e+00  0.0000000000000000e+00 0.0000000000000000e+00 0.0000000000000000e+00  0.0000000000000000e+00 0.0000000000000000e+00 0.0000000000000000e+00  0.0000000000000000e+00 0.0000000000000000e+00 0.0000000000000000e+00  0.0000000000000000e+00 0.0000000000000000e+00 0.0000000000000000e+00  0.0000000000000000e+00 0.0000000000000000e+00 0.0000000000000000e+00  0.0000000000000000e+00 0.0000000000000000e+00 0.0000000000000000e+00  0.0000000000000000e+00 0.0000000000000000e+00 0.0000000000000000e+00  0.0000000000000000e+00 0.0000000000000000e+00 0.0000000000000000e+00  0.0000000000000000e+00 0.0000000000000000e+00 0.0000000000000000e+00  0.0000000000000000e+00 0.0000000000000000e+00 0.0000000000000000e+00  0.0000000000000000e+00 0.0000000000000000e+00 0.0000000000000000e+00  0.0000000000000000e+00 0.0000000000000000e+00 0.0000000000000000e+00  0.0000000000000000e+00 0.0000000000000000e+00 0.0000000000000000e+00  0.0000000000000000e+00 0.0000000000000000e+00 0.0000000000000000e+00  0.0000000000000000e+00 0.0000000000000000e+00 0.0000000000000000e+00  0.0000000000000000e+00 0.0000000000000000e+00 0.0000000000000000e+00  0.0000000000000000e+00 0.0000000000000000e+00 0.0000000000000000e+00  0.0000000000000000e+00 0.0000000000000000e+00 0.0000000000000000e+00  0.0000000000000000e+00 0.0000000000000000e+00 0.0000000000000000e+00  0.0000000000000000e+00 0.0000000000000000e+00 0.0000000000000000e+00  0.0000000000000000e+00 0.0000000000000000e+00 0.0000000000000000e+00  0.0000000000000000e+00 0.0000000000000000e+00 0.0000000000000000e+00  0.0000000000000000e+00 0.0000000000000000e+00 0.0000000000000000e+00  0.0000000000000000e+00 0.0000000000000000e+00 0.0000000000000000e+00  0.0000000000000000e+00 0.0000000000000000e+00 0.0000000000000000e+00  0.0000000000000000e+00 0.0000000000000000e+00 0.0000000000000000e+00  0.0000000000000000e+00 0.0000000000000000e+00 0.0000000000000000e+00  0.0000000000000000e+00 0.0000000000000000e+00 0.0000000000000000e+00  0.0000000000000000e+00 0.0000000000000000e+00 0.0000000000000000e+00  0.0000000000000000e+00 0.0000000000000000e+00 0.0000000000000000e+00  0.0000000000000000e+00 0.0000000000000000e+00 0.0000000000000000e+00  0.0000000000000000e+00 0.0000000000000000e+00 0.0000000000000000e+00  0.0000000000000000e+00 0.0000000000000000e+00 0.0000000000000000e+00  0.0000000000000000e+00 0.0000000000000000e+00 0.0000000000000000e+00  0.0000000000000000e+00 0.0000000000000000e+00 0.0000000000000000e+00  0.0000000000000000e+00 0.0000000000000000e+00 0.0000000000000000e+00  0.0000000000000000e+00 0.0000000000000000e+00 0.0000000000000000e+00  0.0000000000000000e+00 0.0000000000000000e+00 0.0000000000000000e+00  0.0000000000000000e+00 0.0000000000000000e+00 0.0000000000000000e+00  0.0000000000000000e+00 0.0000000000000000e+00 0.0000000000000000e+00  0.0000000000000000e+00 0.0000000000000000e+00 0.0000000000000000e+00  1.0303777999034260e-07 -6.3879389396111378e-08 0.0000000000000000e+00  -1.6280702766770554e-07 1.0119423640264711e-07 0.0000000000000000e+00  -6.6491039144444984e-08 2.1721054105456529e-09 0.0000000000000000e+00  -2.6292082369821307e-07 -2.9597416134150842e-08 0.0000000000000000e+00  -2.5975394776774622e-07 -5.6231965931777180e-08 0.0000000000000000e+00  -2.6117151783582241e-07 -6.3043416621758160e-08 0.0000000000000000e+00  -2.6555145858548367e-07 -5.8002613093492505e-08 0.0000000000000000e+00  -2.5801628121727061e-07 -5.0317385417041800e-08 0.0000000000000000e+00  -2.5047904366337140e-07 -4.1316888690602581e-08 0.0000000000000000e+00  -2.4326354584206443e-07 -3.2151274591917538e-08 0.0000000000000000e+00  -2.3782387775953241e-07 -2.3267993156307104e-08 0.0000000000000000e+00  -2.3555307145911649e-07 -1.4775028150576712e-08 0.0000000000000000e+00  -2.3702572205077612e-07 -6.7175928451151621e-09 0.0000000000000000e+00  -2.4268868860566521e-07 9.2872497576758691e-10 0.0000000000000000e+00  -2.5282087838180637e-07 8.2241941864012488e-09 0.0000000000000000e+00  -2.6760009156373515e-07 1.5236294520981805e-08 0.0000000000000000e+00  -2.8714905324396691e-07 2.2009028540422556e-08 0.0000000000000000e+00  -3.1152409304073942e-07 2.8527512593986277e-08 0.0000000000000000e+00  -3.4067576852223113e-07 3.4685176866804422e-08 0.0000000000000000e+00  -3.7437895978124705e-07 4.0263647970470436e-08 0.0000000000000000e+00  -4.1214757322158359e-07 4.4936070199065887e-08 0.0000000000000000e+00  -4.5315928564728380e-07 4.8300673352454474e-08 0.0000000000000000e+00  -4.9621491286823662e-07 4.9942363250988354e-08 0.0000000000000000e+00  -5.3975985974736785e-07 4.9509336206231788e-08 0.0000000000000000e+00  -5.8196514838078471e-07 4.6784399131401057e-08 0.0000000000000000e+00  -6.2087758873506988e-07 4.1729832337069863e-08 0.0000000000000000e+00  -6.5456699692026167e-07 3.4495453264798422e-08 0.0000000000000000e+00  -6.8132443954692555e-07 2.5384705174358523e-08 0.0000000000000000e+00  -6.9969535661202708e-07 1.4804347383953247e-08 0.0000000000000000e+00  -7.0871411127716489e-07 3.1812477648031639e-09 0.0000000000000000e+00  -7.0754636067820555e-07 -9.0556369439880176e-09 0.0000000000000000e+00  -6.9619727645180459e-07 -2.1608377398383757e-08 0.0000000000000000e+00  -6.7389552383723180e-07 -3.4111733896369115e-08 0.0000000000000000e+00  -6.4224154712701938e-07 -4.6617208154314024e-08 0.0000000000000000e+00  -5.9848982716364043e-07 -5.8473241289896501e-08 0.0000000000000000e+00  -5.4928952786612898e-07 -7.0743282892814473e-08 0.0000000000000000e+00  -4.8223891422582284e-07 -8.0739463291549089e-08 0.0000000000000000e+00  -4.2445726811857145e-07 -9.3865452338622715e-08 0.0000000000000000e+00  -3.2241091929051942e-07 -9.7634754483710719e-08 0.0000000000000000e+00  -2.8776778808084507e-07 -1.1744885743372562e-07 0.0000000000000000e+00  -9.7088929300337631e-08 -9.6810389949485221e-08 0.0000000000000000e+00  -2.0506412632465785e-07 -1.5023068752332855e-07 0.0000000000000000e+00  2.9173874075674148e-07 -3.2258322816585991e-08 0.0000000000000000e+00  -4.3696080459733988e-07 -2.4093618680299858e-07 0.0000000000000000e+00  1.1402279523650537e-06 2.3202270882542525e-07 0.0000000000000000e+00  -2.3944340160219636e-06 -7.6478954913367838e-07 0.0000000000000000e+00  2.9259924976821912e-06 1.2982679642417133e-06 0.0000000000000000e+00  0.0000000000000000e+00 0.0000000000000000e+00 0.0000000000000000e+00  0.0000000000000000e+00 0.0000000000000000e+00 0.0000000000000000e+00  -1.3419264789754803e-06 5.9459743350624385e-07 0.0000000000000000e+00  7.4449179181481118e-07 -3.7654949977694750e-08 0.0000000000000000e+00  -1.0786034199556615e-07 1.2717197977611262e-07 0.0000000000000000e+00  -2.6516587246924698e-07 1.5784178789123146e-08 0.0000000000000000e+00  -2.8536880236364465e-07 -3.3734818540083135e-08 0.0000000000000000e+00  -3.5424112433643749e-07 -5.7934134769201456e-08 0.0000000000000000e+00  -3.6485629751570168e-07 -6.6169443902082089e-08 0.0000000000000000e+00  -3.6541814087942097e-07 -6.5211585512833509e-08 0.0000000000000000e+00  -3.6122335336003002e-07 -5.8595194078833752e-08 0.0000000000000000e+00  -3.5346520891111865e-07 -4.8792639741990604e-08 0.0000000000000000e+00  -3.4680921971137320e-07 -3.7126224015462775e-08 0.0000000000000000e+00  -3.4258492464469939e-07 -2.4447447020609130e-08 0.0000000000000000e+00  -3.4187648205367752e-07 -1.1298162228026165e-08 0.0000000000000000e+00  -3.4541175066416469e-07 2.0114796761707799e-09 0.0000000000000000e+00  -3.5357421471628250e-07 1.5322257049845042e-08 0.0000000000000000e+00  -3.6661004371347213e-07 2.8557928232820416e-08 0.0000000000000000e+00  -3.8465511817438066e-07 4.1653280327700688e-08 0.0000000000000000e+00  -4.0775211711993440e-07 5.4473843474751149e-08 0.0000000000000000e+00  -4.3582200539853659e-07 6.6738687476186996e-08 0.0000000000000000e+00  -4.6859079656306919e-07 7.7965736875978320e-08 0.0000000000000000e+00  -5.0549216255884673e-07 8.7463432331188783e-08 0.0000000000000000e+00  -5.4557572544638726e-07 9.4386767006103519e-08 0.0000000000000000e+00  -5.8745661890221223e-07 9.7857021408692680e-08 0.0000000000000000e+00  -6.2934534880371073e-07 9.7119901917375047e-08 0.0000000000000000e+00  -6.6915803726375697e-07 9.1698119570497879e-08 0.0000000000000000e+00  -7.0471424005874384e-07 8.1491290523728748e-08 0.0000000000000000e+00  -7.3392989367449159e-07 6.6796226084752010e-08 0.0000000000000000e+00  -7.5505526920721986e-07 4.8240857001075711e-08 0.0000000000000000e+00  -7.6670951347563970e-07 2.6671856890488033e-08 0.0000000000000000e+00  -7.6811981854960082e-07 2.9986017337986516e-09 0.0000000000000000e+00  -7.5870230686935611e-07 -2.1885928878955708e-08 0.0000000000000000e+00  -7.3879808104475484e-07 -4.7279283987512181e-08 0.0000000000000000e+00  -7.0792263290054062e-07 -7.2485461543448406e-08 0.0000000000000000e+00  -6.6809658553006751e-07 -9.7282584038643335e-08 0.0000000000000000e+00  -6.1678991005199967e-07 -1.2080771376060303e-07 0.0000000000000000e+00  -5.6125872107673113e-07 -1.4384077075636875e-07 0.0000000000000000e+00  -4.8917641386056695e-07 -1.6357234485438229e-07 0.0000000000000000e+00  -4.2870646583247787e-07 -1.8466351795226254e-07 0.0000000000000000e+00  -3.2630975282278193e-07 -1.9507237941171639e-07 0.0000000000000000e+00  -2.9504979639120146e-07 -2.1727003061830659e-07 0.0000000000000000e+00  -1.1274110041062991e-07 -1.9914490114976362e-07 0.0000000000000000e+00  -2.3310144549253236e-07 -2.4291879692920079e-07 0.0000000000000000e+00  2.3553754870756500e-07 -1.2913242628835546e-07 0.0000000000000000e+00  -5.1058229281622611e-07 -3.0411378438379185e-07 0.0000000000000000e+00  9.5577905831561387e-07 1.2912681978255865e-07 0.0000000000000000e+00  -2.4255733091255398e-06 -6.5214533878388315e-07 0.0000000000000000e+00  2.7837180877949440e-06 1.3020313545677198e-06 0.0000000000000000e+00  0.0000000000000000e+00 0.0000000000000000e+00 0.0000000000000000e+00  0.0000000000000000e+00 0.0000000000000000e+00 0.0000000000000000e+00  -2.4574581991471883e-06 1.0658031080877834e-06 0.0000000000000000e+00  1.6761308571479918e-06 -1.3864390110244585e-07 0.0000000000000000e+00  -3.9459819810441913e-07 2.8599259850120595e-07 0.0000000000000000e+00  9.9895972757391743e-09 4.1382396248387621e-08 0.0000000000000000e+00  -1.3844900510503125e-07 1.6882942417333988e-08 0.0000000000000000e+00  -2.0395405557288543e-07 -3.4818327948456179e-08 0.0000000000000000e+00  -2.2964029663793127e-07 -5.5164516928300189e-08 0.0000000000000000e+00  -2.6606210454201813e-07 -6.2045498520555973e-08 0.0000000000000000e+00  -2.8698056670775451e-07 -5.9264910725517309e-08 0.0000000000000000e+00  -3.0262003499903027e-07 -5.0281664069201638e-08 0.0000000000000000e+00  -3.1523535830586868e-07 -3.7501565154428589e-08 0.0000000000000000e+00  -3.2606996644276269e-07 -2.2451731525275851e-08 0.0000000000000000e+00  -3.3700865354060015e-07 -6.1430732976753786e-09 0.0000000000000000e+00  -3.4903778100123726e-07 1.0801520982107957e-08 0.0000000000000000e+00  -3.6291760761059617e-07 2.8024591686183134e-08 0.0000000000000000e+00  -3.7919925609409674e-07 4.5334407447681478e-08 0.0000000000000000e+00  -3.9826706919434752e-07 6.2597689964643405e-08 0.0000000000000000e+00  -4.2039384480596248e-07 7.9615412465141685e-08 0.0000000000000000e+00  -4.4571895476787392e-07 9.5996117535361254e-08 0.0000000000000000e+00  -4.7418079237177778e-07 1.1105532271101678e-07 0.0000000000000000e+00  -5.0540858826269688e-07 1.2378410869863726e-07 0.0000000000000000e+00  -5.3861129117394245e-07 1.3292339689460773e-07 0.0000000000000000e+00  -5.7251459686616703e-07 1.3714945053531749e-07 0.0000000000000000e+00  -6.0540152106122743e-07 1.3533034229296130e-07 0.0000000000000000e+00  -6.3526278680831198e-07 1.2677604405101634e-07 0.0000000000000000e+00  -6.6005590083771860e-07 1.1139836715661540e-07 0.0000000000000000e+00  -6.7795378050696791e-07 8.9732660459745129e-08 0.0000000000000000e+00  -6.8761511493399176e-07 6.2817458691055516e-08 0.0000000000000000e+00  -6.8820349666042874e-07 3.1996693730287306e-08 0.0000000000000000e+00  -6.7959510182721951e-07 -1.3244457781329604e-09 0.0000000000000000e+00  -6.6188033959820252e-07 -3.5821210904697879e-08 0.0000000000000000e+00  -6.3608991627548199e-07 -7.0458236293627509e-08 0.0000000000000000e+00  -6.0233109257300748e-07 -1.0429762644121024e-07 0.0000000000000000e+00  -5.6325695533140524e-07 -1.3695498838778815e-07 0.0000000000000000e+00  -5.1674256036770439e-07 -1.6743077822970207e-07 0.0000000000000000e+00  -4.7073153221514021e-07 -1.9637418794804631e-07 0.0000000000000000e+00  -4.1302318643669619e-07 -2.2082559696283666e-07 0.0000000000000000e+00  -3.7276857010152391e-07 -2.4512694351238569e-07 0.0000000000000000e+00  -2.9607366846711839e-07 -2.5728290938495964e-07 0.0000000000000000e+00  -2.9709077548581472e-07 -2.7856483732307885e-07 0.0000000000000000e+00  -1.5367328715710649e-07 -2.5950172191755226e-07 0.0000000000000000e+00  -3.1569053422178284e-07 -2.9632556664397402e-07 0.0000000000000000e+00  9.6860738506894227e-08 -1.8905382109350821e-07 0.0000000000000000e+00  -6.7934959360133686e-07 -3.4642889918791314e-07 0.0000000000000000e+00  7.0313758338887648e-07 3.3228838363752311e-08 0.0000000000000000e+00  -2.6092120883448701e-06 -6.3663621602721935e-07 0.0000000000000000e+00  2.4145772860770496e-06 1.0678730769724380e-06 0.0000000000000000e+00  0.0000000000000000e+00 0.0000000000000000e+00 0.0000000000000000e+00  0.0000000000000000e+00 0.0000000000000000e+00 0.0000000000000000e+00  -2.7253168450299748e-06 1.1148472814551887e-06 0.0000000000000000e+00  2.2763244739207043e-06 -1.6980338194972329e-07 0.0000000000000000e+00  -7.1150827322455778e-07 3.6353385631191632e-07 0.0000000000000000e+00  2.6976388822324180e-07 5.4008539807946697e-08 0.0000000000000000e+00  -1.6106802695309316e-07 9.0568892601156144e-08 0.0000000000000000e+00  -1.0976274092070186e-07 9.7480023890322665e-09 0.0000000000000000e+00  -1.6399274801692149e-07 -1.2642280921053646e-08 0.0000000000000000e+00  -2.0651010035713043e-07 -3.1351534016824700e-08 0.0000000000000000e+00  -2.3415392872511806e-07 -3.5808297700961120e-08 0.0000000000000000e+00  -2.6092781829804497e-07 -3.2182345967223294e-08 0.0000000000000000e+00  -2.8204595445047356e-07 -2.2616241484793596e-08 0.0000000000000000e+00  -3.0048109450677510e-07 -9.0814659180725630e-09 0.0000000000000000e+00  -3.1749985791261616e-07 6.9740182840642308e-09 0.0000000000000000e+00  -3.3393426716210902e-07 2.4591528971430881e-08 0.0000000000000000e+00  -3.5062373879604109e-07 4.3142751951155380e-08 0.0000000000000000e+00  -3.6812177458210435e-07 6.2256871610751606e-08 0.0000000000000000e+00  -3.8687865005110908e-07 8.1687170257393146e-08 0.0000000000000000e+00  -4.0726664009358275e-07 1.0115048191791366e-07 0.0000000000000000e+00  -4.2956587187310929e-07 1.2014231080995329e-07 0.0000000000000000e+00  -4.5389100705739389e-07 1.3777010440564318e-07 0.0000000000000000e+00  -4.8004730178040599e-07 1.5267786931767022e-07 0.0000000000000000e+00  -5.0737027734859204e-07 1.6313208534191686e-07 0.0000000000000000e+00  -5.3462357762005555e-07 1.6729156722873455e-07 0.0000000000000000e+00  -5.6004351609327148e-07 1.6360071894474843e-07 0.0000000000000000e+00  -5.8154965460181858e-07 1.5117439311016447e-07 0.0000000000000000e+00  -5.9710556591441223e-07 1.3003097313398353e-07 0.0000000000000000e+00  -6.0505884513337395e-07 1.0109517661791551e-07 0.0000000000000000e+00  -6.0446167764448450e-07 6.5980629409498506e-08 0.0000000000000000e+00  -5.9505340762054936e-07 2.6661374626709599e-08 0.0000000000000000e+00  -5.7741441031200304e-07 -1.4887486807360907e-08 0.0000000000000000e+00  -5.5232560218628415e-07 -5.6900687642556571e-08 0.0000000000000000e+00  -5.2150352603466375e-07 -9.8047041093011226e-08 0.0000000000000000e+00  -4.8551171675325326e-07 -1.3721605279875671e-07 0.0000000000000000e+00  -4.4755056909285509e-07 -1.7391946180065473e-07 0.0000000000000000e+00  -4.0548610592578363e-07 -2.0710157011952387e-07 0.0000000000000000e+00  -3.6794506639379605e-07 -2.3729069405141318e-07 0.0000000000000000e+00  -3.2175356227370751e-07 -2.6152280257985528e-07 0.0000000000000000e+00  -2.9780876517190540e-07 -2.8375736097544764e-07 0.0000000000000000e+00  -2.3846231285601351e-07 -2.9255871823788801e-07 0.0000000000000000e+00  -2.6345231784883388e-07 -3.0781437598051522e-07 0.0000000000000000e+00  -1.3840980726500918e-07 -2.8413954364434510e-07 0.0000000000000000e+00  -3.3081390604901421e-07 -3.1123301990564896e-07 0.0000000000000000e+00  7.4691196629659292e-08 -2.0938755057635089e-07 0.0000000000000000e+00  -7.3406023391527950e-07 -3.5041069476661723e-07 0.0000000000000000e+00  6.7045155404784307e-07 -1.7384051131226574e-08 0.0000000000000000e+00  -2.6472563543932299e-06 -6.0706185780489824e-07 0.0000000000000000e+00  2.4064835750530446e-06 9.0037264516210386e-07 0.0000000000000000e+00  0.0000000000000000e+00 0.0000000000000000e+00 0.0000000000000000e+00  0.0000000000000000e+00 0.0000000000000000e+00 0.0000000000000000e+00  -2.6779480304439132e-06 1.0193273885182734e-06 0.0000000000000000e+00  2.5174299347264360e-06 -1.4950779622998243e-07 0.0000000000000000e+00  -8.5683844131095818e-07 3.6438816319744492e-07 0.0000000000000000e+00  4.7825281229225535e-07 6.6326746662012113e-08 0.0000000000000000e+00  -2.1024619783174010e-07 1.4556007075917290e-07 0.0000000000000000e+00  4.3832830601843638e-09 4.8111588670668527e-08 0.0000000000000000e+00  -1.1267128547881915e-07 3.3806769672918524e-08 0.0000000000000000e+00  -1.3252164016371272e-07 4.7548728742374361e-09 0.0000000000000000e+00  -1.6860690051361376e-07 -3.9148728676580345e-09 0.0000000000000000e+00  -2.0115903321492267e-07 -5.7403647406293664e-09 0.0000000000000000e+00  -2.2779563691644932e-07 2.0926778435978193e-10 0.0000000000000000e+00  -2.5243149237671478e-07 1.1192995433376949e-08 0.0000000000000000e+00  -2.7453069384682710e-07 2.5728402685826364e-08 0.0000000000000000e+00  -2.9512743147683844e-07 4.2615117551347532e-08 0.0000000000000000e+00  -3.1485103000349520e-07 6.1022140648590684e-08 0.0000000000000000e+00  -3.3416681436755620e-07 8.0448734666059047e-08 0.0000000000000000e+00  -3.5353190002567952e-07 1.0058180237799597e-07 0.0000000000000000e+00  -3.7336787490695140e-07 1.2111998278291009e-07 0.0000000000000000e+00  -3.9408703990799810e-07 1.4151830060742926e-07 0.0000000000000000e+00  -4.1599749334069267e-07 1.6072624216802136e-07 0.0000000000000000e+00  -4.3910331175911013e-07 1.7703065138422404e-07 0.0000000000000000e+00  -4.6285668897120481e-07 1.8813851561865495e-07 0.0000000000000000e+00  -4.8597947363502193e-07 1.9156393789114596e-07 0.0000000000000000e+00  -5.0650513945805588e-07 1.8523072112712709e-07 0.0000000000000000e+00  -5.2208920297117415e-07 1.6806330182522343e-07 0.0000000000000000e+00  -5.3054104598868943e-07 1.4031720921989242e-07 0.0000000000000000e+00  -5.3031530798970408e-07 1.0352537010353200e-07 0.0000000000000000e+00  -5.2089512141334080e-07 6.0107238104207168e-08 0.0000000000000000e+00  -5.0270481675517950e-07 1.2835944849416779e-08 0.0000000000000000e+00  -4.7714416591188408e-07 -3.5677830388205684e-08 0.0000000000000000e+00  -4.4576264816612975e-07 -8.3265553514841084e-08 0.0000000000000000e+00  -4.1095416512257819e-07 -1.2841471005346420e-07 0.0000000000000000e+00  -3.7368247513569619e-07 -1.6999424233806277e-07 0.0000000000000000e+00  -3.3751628069646117e-07 -2.0757899374575029e-07 0.00000