<?xml version="1.0"?>
<VTKFile type="UnstructuredGrid"  version="0.1"  >
<UnstructuredGrid>
<Piece  NumberOfPoints="1617" NumberOfCells="3072">
<Points>
<DataArray  type="Float64"  NumberOfComponents="3"  format="ascii">0 0 0  0.03125 0 0  0.0625 0 0  0.09375 0 0  0.125 0 0  0.15625 0 0  0.1875 0 0  0.21875 0 0  0.25 0 0  0.28125 0 0  0.3125 0 0  0.34375 0 0  0.375 0 0  0.40625 0 0  0.4375 0 0  0.46875 0 0  0.5 0 0  0.53125 0 0  0.5625 0 0  0.59375 0 0  0.625 0 0  0.65625 0 0  0.6875 0 0  0.71875 0 0  0.75 0 0  0.78125 0 0  0.8125 0 0  0.84375 0 0  0.875 0 0  0.90625 0 0  0.9375 0 0  0.96875 0 0  1 0 0  1.03125 0 0  1.0625 0 0  1.09375 0 0  1.125 0 0  1.15625 0 0  1.1875 0 0  1.21875 0 0  1.25 0 0  1.28125 0 0  1.3125 0 0  1.34375 0 0  1.375 0 0  1.40625 0 0  1.4375 0 0  1.46875 0 0  1.5 0 0  0 0.03125 0  0.03125 0.03125 0  0.0625 0.03125 0  0.09375 0.03125 0  0.125 0.03125 0  0.15625 0.03125 0  0.1875 0.03125 0  0.21875 0.03125 0  0.25 0.03125 0  0.28125 0.03125 0  0.3125 0.03125 0  0.34375 0.03125 0  0.375 0.03125 0  0.40625 0.03125 0  0.4375 0.03125 0  0.46875 0.03125 0  0.5 0.03125 0  0.53125 0.03125 0  0.5625 0.03125 0  0.59375 0.03125 0  0.625 0.03125 0  0.65625 0.03125 0  0.6875 0.03125 0  0.71875 0.03125 0  0.75 0.03125 0  0.78125 0.03125 0  0.8125 0.03125 0  0.84375 0.03125 0  0.875 0.03125 0  0.90625 0.03125 0  0.9375 0.03125 0  0.96875 0.03125 0  1 0.03125 0  1.03125 0.03125 0  1.0625 0.03125 0  1.09375 0.03125 0  1.125 0.03125 0  1.15625 0.03125 0  1.1875 0.03125 0  1.21875 0.03125 0  1.25 0.03125 0  1.28125 0.03125 0  1.3125 0.03125 0  1.34375 0.03125 0  1.375 0.03125 0  1.40625 0.03125 0  1.4375 0.03125 0  1.46875 0.03125 0  1.5 0.03125 0  0 0.0625 0  0.03125 0.0625 0  0.0625 0.0625 0  0.09375 0.0625 0  0.125 0.0625 0  0.15625 0.0625 0  0.1875 0.0625 0  0.21875 0.0625 0  0.25 0.0625 0  0.28125 0.0625 0  0.3125 0.0625 0  0.34375 0.0625 0  0.375 0.0625 0  0.40625 0.0625 0  0.4375 0.0625 0  0.46875 0.0625 0  0.5 0.0625 0  0.53125 0.0625 0  0.5625 0.0625 0  0.59375 0.0625 0  0.625 0.0625 0  0.65625 0.0625 0  0.6875 0.0625 0  0.71875 0.0625 0  0.75 0.0625 0  0.78125 0.0625 0  0.8125 0.0625 0  0.84375 0.0625 0  0.875 0.0625 0  0.90625 0.0625 0  0.9375 0.0625 0  0.96875 0.0625 0  1 0.0625 0  1.03125 0.0625 0  1.0625 0.0625 0  1.09375 0.0625 0  1.125 0.0625 0  1.15625 0.0625 0  1.1875 0.0625 0  1.21875 0.0625 0  1.25 0.0625 0  1.28125 0.0625 0  1.3125 0.0625 0  1.34375 0.0625 0  1.375 0.0625 0  1.40625 0.0625 0  1.4375 0.0625 0  1.46875 0.0625 0  1.5 0.0625 0  0 0.09375 0  0.03125 0.09375 0  0.0625 0.09375 0  0.09375 0.09375 0  0.125 0.09375 0  0.15625 0.09375 0  0.1875 0.09375 0  0.21875 0.09375 0  0.25 0.09375 0  0.28125 0.09375 0  0.3125 0.09375 0  0.34375 0.09375 0  0.375 0.09375 0  0.40625 0.09375 0  0.4375 0.09375 0  0.46875 0.09375 0  0.5 0.09375 0  0.53125 0.09375 0  0.5625 0.09375 0  0.59375 0.09375 0  0.625 0.09375 0  0.65625 0.09375 0  0.6875 0.09375 0  0.71875 0.09375 0  0.75 0.09375 0  0.78125 0.09375 0  0.8125 0.09375 0  0.84375 0.09375 0  0.875 0.09375 0  0.90625 0.09375 0  0.9375 0.09375 0  0.96875 0.09375 0  1 0.09375 0  1.03125 0.09375 0  1.0625 0.09375 0  1.09375 0.09375 0  1.125 0.09375 0  1.15625 0.09375 0  1.1875 0.09375 0  1.21875 0.09375 0  1.25 0.09375 0  1.28125 0.09375 0  1.3125 0.09375 0  1.34375 0.09375 0  1.375 0.09375 0  1.40625 0.09375 0  1.4375 0.09375 0  1.46875 0.09375 0  1.5 0.09375 0  0 0.125 0  0.03125 0.125 0  0.0625 0.125 0  0.09375 0.125 0  0.125 0.125 0  0.15625 0.125 0  0.1875 0.125 0  0.21875 0.125 0  0.25 0.125 0  0.28125 0.125 0  0.3125 0.125 0  0.34375 0.125 0  0.375 0.125 0  0.40625 0.125 0  0.4375 0.125 0  0.46875 0.125 0  0.5 0.125 0  0.53125 0.125 0  0.5625 0.125 0  0.59375 0.125 0  0.625 0.125 0  0.65625 0.125 0  0.6875 0.125 0  0.71875 0.125 0  0.75 0.125 0  0.78125 0.125 0  0.8125 0.125 0  0.84375 0.125 0  0.875 0.125 0  0.90625 0.125 0  0.9375 0.125 0  0.96875 0.125 0  1 0.125 0  1.03125 0.125 0  1.0625 0.125 0  1.09375 0.125 0  1.125 0.125 0  1.15625 0.125 0  1.1875 0.125 0  1.21875 0.125 0  1.25 0.125 0  1.28125 0.125 0  1.3125 0.125 0  1.34375 0.125 0  1.375 0.125 0  1.40625 0.125 0  1.4375 0.125 0  1.46875 0.125 0  1.5 0.125 0  0 0.15625 0  0.03125 0.15625 0  0.0625 0.15625 0  0.09375 0.15625 0  0.125 0.15625 0  0.15625 0.15625 0  0.1875 0.15625 0  0.21875 0.15625 0  0.25 0.15625 0  0.28125 0.15625 0  0.3125 0.15625 0  0.34375 0.15625 0  0.375 0.15625 0  0.40625 0.15625 0  0.4375 0.15625 0  0.46875 0.15625 0  0.5 0.15625 0  0.53125 0.15625 0  0.5625 0.15625 0  0.59375 0.15625 0  0.625 0.15625 0  0.65625 0.15625 0  0.6875 0.15625 0  0.71875 0.15625 0  0.75 0.15625 0  0.78125 0.15625 0  0.8125 0.15625 0  0.84375 0.15625 0  0.875 0.15625 0  0.90625 0.15625 0  0.9375 0.15625 0  0.96875 0.15625 0  1 0.15625 0  1.03125 0.15625 0  1.0625 0.15625 0  1.09375 0.15625 0  1.125 0.15625 0  1.15625 0.15625 0  1.1875 0.15625 0  1.21875 0.15625 0  1.25 0.15625 0  1.28125 0.15625 0  1.3125 0.15625 0  1.34375 0.15625 0  1.375 0.15625 0  1.40625 0.15625 0  1.4375 0.15625 0  1.46875 0.15625 0  1.5 0.15625 0  0 0.1875 0  0.03125 0.1875 0  0.0625 0.1875 0  0.09375 0.1875 0  0.125 0.1875 0  0.15625 0.1875 0  0.1875 0.1875 0  0.21875 0.1875 0  0.25 0.1875 0  0.28125 0.1875 0  0.3125 0.1875 0  0.34375 0.1875 0  0.375 0.1875 0  0.40625 0.1875 0  0.4375 0.1875 0  0.46875 0.1875 0  0.5 0.1875 0  0.53125 0.1875 0  0.5625 0.1875 0  0.59375 0.1875 0  0.625 0.1875 0  0.65625 0.1875 0  0.6875 0.1875 0  0.71875 0.1875 0  0.75 0.1875 0  0.78125 0.1875 0  0.8125 0.1875 0  0.84375 0.1875 0  0.875 0.1875 0  0.90625 0.1875 0  0.9375 0.1875 0  0.96875 0.1875 0  1 0.1875 0  1.03125 0.1875 0  1.0625 0.1875 0  1.09375 0.1875 0  1.125 0.1875 0  1.15625 0.1875 0  1.1875 0.1875 0  1.21875 0.1875 0  1.25 0.1875 0  1.28125 0.1875 0  1.3125 0.1875 0  1.34375 0.1875 0  1.375 0.1875 0  1.40625 0.1875 0  1.4375 0.1875 0  1.46875 0.1875 0  1.5 0.1875 0  0 0.21875 0  0.03125 0.21875 0  0.0625 0.21875 0  0.09375 0.21875 0  0.125 0.21875 0  0.15625 0.21875 0  0.1875 0.21875 0  0.21875 0.21875 0  0.25 0.21875 0  0.28125 0.21875 0  0.3125 0.21875 0  0.34375 0.21875 0  0.375 0.21875 0  0.40625 0.21875 0  0.4375 0.21875 0  0.46875 0.21875 0  0.5 0.21875 0  0.53125 0.21875 0  0.5625 0.21875 0  0.59375 0.21875 0  0.625 0.21875 0  0.65625 0.21875 0  0.6875 0.21875 0  0.71875 0.21875 0  0.75 0.21875 0  0.78125 0.21875 0  0.8125 0.21875 0  0.84375 0.21875 0  0.875 0.21875 0  0.90625 0.21875 0  0.9375 0.21875 0  0.96875 0.21875 0  1 0.21875 0  1.03125 0.21875 0  1.0625 0.21875 0  1.09375 0.21875 0  1.125 0.21875 0  1.15625 0.21875 0  1.1875 0.21875 0  1.21875 0.21875 0  1.25 0.21875 0  1.28125 0.21875 0  1.3125 0.21875 0  1.34375 0.21875 0  1.375 0.21875 0  1.40625 0.21875 0  1.4375 0.21875 0  1.46875 0.21875 0  1.5 0.21875 0  0 0.25 0  0.03125 0.25 0  0.0625 0.25 0  0.09375 0.25 0  0.125 0.25 0  0.15625 0.25 0  0.1875 0.25 0  0.21875 0.25 0  0.25 0.25 0  0.28125 0.25 0  0.3125 0.25 0  0.34375 0.25 0  0.375 0.25 0  0.40625 0.25 0  0.4375 0.25 0  0.46875 0.25 0  0.5 0.25 0  0.53125 0.25 0  0.5625 0.25 0  0.59375 0.25 0  0.625 0.25 0  0.65625 0.25 0  0.6875 0.25 0  0.71875 0.25 0  0.75 0.25 0  0.78125 0.25 0  0.8125 0.25 0  0.84375 0.25 0  0.875 0.25 0  0.90625 0.25 0  0.9375 0.25 0  0.96875 0.25 0  1 0.25 0  1.03125 0.25 0  1.0625 0.25 0  1.09375 0.25 0  1.125 0.25 0  1.15625 0.25 0  1.1875 0.25 0  1.21875 0.25 0  1.25 0.25 0  1.28125 0.25 0  1.3125 0.25 0  1.34375 0.25 0  1.375 0.25 0  1.40625 0.25 0  1.4375 0.25 0  1.46875 0.25 0  1.5 0.25 0  0 0.28125 0  0.03125 0.28125 0  0.0625 0.28125 0  0.09375 0.28125 0  0.125 0.28125 0  0.15625 0.28125 0  0.1875 0.28125 0  0.21875 0.28125 0  0.25 0.28125 0  0.28125 0.28125 0  0.3125 0.28125 0  0.34375 0.28125 0  0.375 0.28125 0  0.40625 0.28125 0  0.4375 0.28125 0  0.46875 0.28125 0  0.5 0.28125 0  0.53125 0.28125 0  0.5625 0.28125 0  0.59375 0.28125 0  0.625 0.28125 0  0.65625 0.28125 0  0.6875 0.28125 0  0.71875 0.28125 0  0.75 0.28125 0  0.78125 0.28125 0  0.8125 0.28125 0  0.84375 0.28125 0  0.875 0.28125 0  0.90625 0.28125 0  0.9375 0.28125 0  0.96875 0.28125 0  1 0.28125 0  1.03125 0.28125 0  1.0625 0.28125 0  1.09375 0.28125 0  1.125 0.28125 0  1.15625 0.28125 0  1.1875 0.28125 0  1.21875 0.28125 0  1.25 0.28125 0  1.28125 0.28125 0  1.3125 0.28125 0  1.34375 0.28125 0  1.375 0.28125 0  1.40625 0.28125 0  1.4375 0.28125 0  1.46875 0.28125 0  1.5 0.28125 0  0 0.3125 0  0.03125 0.3125 0  0.0625 0.3125 0  0.09375 0.3125 0  0.125 0.3125 0  0.15625 0.3125 0  0.1875 0.3125 0  0.21875 0.3125 0  0.25 0.3125 0  0.28125 0.3125 0  0.3125 0.3125 0  0.34375 0.3125 0  0.375 0.3125 0  0.40625 0.3125 0  0.4375 0.3125 0  0.46875 0.3125 0  0.5 0.3125 0  0.53125 0.3125 0  0.5625 0.3125 0  0.59375 0.3125 0  0.625 0.3125 0  0.65625 0.3125 0  0.6875 0.3125 0  0.71875 0.3125 0  0.75 0.3125 0  0.78125 0.3125 0  0.8125 0.3125 0  0.84375 0.3125 0  0.875 0.3125 0  0.90625 0.3125 0  0.9375 0.3125 0  0.96875 0.3125 0  1 0.3125 0  1.03125 0.3125 0  1.0625 0.3125 0  1.09375 0.3125 0  1.125 0.3125 0  1.15625 0.3125 0  1.1875 0.3125 0  1.21875 0.3125 0  1.25 0.3125 0  1.28125 0.3125 0  1.3125 0.3125 0  1.34375 0.3125 0  1.375 0.3125 0  1.40625 0.3125 0  1.4375 0.3125 0  1.46875 0.3125 0  1.5 0.3125 0  0 0.34375 0  0.03125 0.34375 0  0.0625 0.34375 0  0.09375 0.34375 0  0.125 0.34375 0  0.15625 0.34375 0  0.1875 0.34375 0  0.21875 0.34375 0  0.25 0.34375 0  0.28125 0.34375 0  0.3125 0.34375 0  0.34375 0.34375 0  0.375 0.34375 0  0.40625 0.34375 0  0.4375 0.34375 0  0.46875 0.34375 0  0.5 0.34375 0  0.53125 0.34375 0  0.5625 0.34375 0  0.59375 0.34375 0  0.625 0.34375 0  0.65625 0.34375 0  0.6875 0.34375 0  0.71875 0.34375 0  0.75 0.34375 0  0.78125 0.34375 0  0.8125 0.34375 0  0.84375 0.34375 0  0.875 0.34375 0  0.90625 0.34375 0  0.9375 0.34375 0  0.96875 0.34375 0  1 0.34375 0  1.03125 0.34375 0  1.0625 0.34375 0  1.09375 0.34375 0  1.125 0.34375 0  1.15625 0.34375 0  1.1875 0.34375 0  1.21875 0.34375 0  1.25 0.34375 0  1.28125 0.34375 0  1.3125 0.34375 0  1.34375 0.34375 0  1.375 0.34375 0  1
[...]
<PointData  Vectors="f_17"> 
<DataArray  type="Float64"  Name="f_17"  NumberOfComponents="3" format="ascii">0.0000000000000000e+00 0.0000000000000000e+00 0.0000000000000000e+00  0.0000000000000000e+00 0.0000000000000000e+00 0.0000000000000000e+00  0.0000000000000000e+00 0.0000000000000000e+00 0.0000000000000000e+00  0.0000000000000000e+00 0.0000000000000000e+00 0.0000000000000000e+00  0.0000000000000000e+00 0.0000000000000000e+00 0.0000000000000000e+00  0.0000000000000000e+00 0.0000000000000000e+00 0.0000000000000000e+00  0.0000000000000000e+00 0.0000000000000000e+00 0.0000000000000000e+00  0.0000000000000000e+00 0.0000000000000000e+00 0.0000000000000000e+00  0.0000000000000000e+00 0.0000000000000000e+00 0.0000000000000000e+00  0.0000000000000000e+00 0.0000000000000000e+00 0.0000000000000000e+00  0.0000000000000000e+00 0.0000000000000000e+00 0.0000000000000000e+00  0.0000000000000000e+00 0.0000000000000000e+00 0.0000000000000000e+00  0.0000000000000000e+00 0.0000000000000000e+00 0.0000000000000000e+00  0.0000000000000000e+00 0.0000000000000000e+00 0.0000000000000000e+00  0.0000000000000000e+00 0.0000000000000000e+00 0.0000000000000000e+00  0.0000000000000000e+00 0.0000000000000000e+00 0.0000000000000000e+00  0.0000000000000000e+00 0.0000000000000000e+00 0.0000000000000000e+00  0.0000000000000000e+00 0.0000000000000000e+00 0.0000000000000000e+00  0.0000000000000000e+00 0.0000000000000000e+00 0.0000000000000000e+00  0.0000000000000000e+00 0.0000000000000000e+00 0.0000000000000000e+00  0.0000000000000000e+00 0.0000000000000000e+00 0.0000000000000000e+00  0.0000000000000000e+00 0.0000000000000000e+00 0.0000000000000000e+00  0.0000000000000000e+00 0.0000000000000000e+00 0.0000000000000000e+00  0.0000000000000000e+00 0.0000000000000000e+00 0.0000000000000000e+00  0.0000000000000000e+00 0.0000000000000000e+00 0.0000000000000000e+00  0.0000000000000000e+00 0.0000000000000000e+00 0.0000000000000000e+00  0.0000000000000000e+00 0.0000000000000000e+00 0.0000000000000000e+00  0.0000000000000000e+00 0.0000000000000000e+00 0.0000000000000000e+00  0.0000000000000000e+00 0.0000000000000000e+00 0.0000000000000000e+00  0.0000000000000000e+00 0.0000000000000000e+00 0.0000000000000000e+00  0.0000000000000000e+00 0.0000000000000000e+00 0.0000000000000000e+00  0.0000000000000000e+00 0.0000000000000000e+00 0.0000000000000000e+00  0.0000000000000000e+00 0.0000000000000000e+00 0.0000000000000000e+00  0.0000000000000000e+00 0.0000000000000000e+00 0.0000000000000000e+00  0.0000000000000000e+00 0.0000000000000000e+00 0.0000000000000000e+00  0.0000000000000000e+00 0.0000000000000000e+00 0.0000000000000000e+00  0.0000000000000000e+00 0.0000000000000000e+00 0.0000000000000000e+00  0.0000000000000000e+00 0.0000000000000000e+00 0.0000000000000000e+00  0.0000000000000000e+00 0.0000000000000000e+00 0.0000000000000000e+00  0.0000000000000000e+00 0.0000000000000000e+00 0.0000000000000000e+00  0.0000000000000000e+00 0.0000000000000000e+00 0.0000000000000000e+00  0.0000000000000000e+00 0.0000000000000000e+00 0.0000000000000000e+00  0.0000000000000000e+00 0.0000000000000000e+00 0.0000000000000000e+00  0.0000000000000000e+00 0.0000000000000000e+00 0.0000000000000000e+00  0.0000000000000000e+00 0.0000000000000000e+00 0.0000000000000000e+00  0.0000000000000000e+00 0.0000000000000000e+00 0.0000000000000000e+00  0.0000000000000000e+00 0.0000000000000000e+00 0.0000000000000000e+00  0.0000000000000000e+00 0.0000000000000000e+00 0.0000000000000000e+00  0.0000000000000000e+00 0.0000000000000000e+00 0.0000000000000000e+00  0.0000000000000000e+00 0.0000000000000000e+00 0.0000000000000000e+00  2.2284217703747039e-07 6.8711425526181233e-09 0.0000000000000000e+00  -1.1934146474321794e-07 9.0703540453820839e-08 0.0000000000000000e+00  -1.0955793154126175e-07 -3.2217196279112933e-08 0.0000000000000000e+00  -3.0728302701748864e-07 -7.3416349633682271e-08 0.0000000000000000e+00  -2.8488676341270036e-07 -1.0029243182211963e-07 0.0000000000000000e+00  -2.6427694479094858e-07 -1.0432779564669908e-07 0.0000000000000000e+00  -2.4578752007657711e-07 -9.5734378521572274e-08 0.0000000000000000e+00  -2.1591029636225746e-07 -8.4533150574195967e-08 0.0000000000000000e+00  -1.8723269235658725e-07 -7.2440739258467934e-08 0.0000000000000000e+00  -1.6022417089506157e-07 -6.0724701366061934e-08 0.0000000000000000e+00  -1.3623787143974844e-07 -4.9814029058077030e-08 0.0000000000000000e+00  -1.1644648767629468e-07 -3.9749807737769069e-08 0.0000000000000000e+00  -1.0117686380321990e-07 -3.0497813932218160e-08 0.0000000000000000e+00  -9.0645181647587443e-08 -2.1959211419853866e-08 0.0000000000000000e+00  -8.4937615436244754e-08 -1.4009483095252458e-08 0.0000000000000000e+00  -8.4084145440201590e-08 -6.5254869914482994e-09 0.0000000000000000e+00  -8.8106303454648503e-08 5.8889488085798042e-10 0.0000000000000000e+00  -9.7007711481645567e-08 7.3735044047197747e-09 0.0000000000000000e+00  -1.1073921096487679e-07 1.3784468660594610e-08 0.0000000000000000e+00  -1.2913621467140732e-07 1.9676903371855296e-08 0.0000000000000000e+00  -1.5184137012198511e-07 2.4807044490702544e-08 0.0000000000000000e+00  -1.7823437171493671e-07 2.8859852134121835e-08 0.0000000000000000e+00  -2.0738940737205454e-07 3.1500362669934267e-08 0.0000000000000000e+00  -2.3808450391570337e-07 3.2437808096658087e-08 0.0000000000000000e+00  -2.6885948623944825e-07 3.1485336436471182e-08 0.0000000000000000e+00  -2.9813440870547440e-07 2.8597437887195542e-08 0.0000000000000000e+00  -3.2432156581161849e-07 2.3876903704185660e-08 0.0000000000000000e+00  -3.4599111732083000e-07 1.7546404047341175e-08 0.0000000000000000e+00  -3.6188005276525942e-07 9.9085966038338217e-09 0.0000000000000000e+00  -3.7111306966429767e-07 1.2754180295192857e-09 0.0000000000000000e+00  -3.7284344035163523e-07 -8.0384032591878980e-09 0.0000000000000000e+00  -3.6696537649358645e-07 -1.7840062549331912e-08 0.0000000000000000e+00  -3.5251085434872976e-07 -2.7856312875448201e-08 0.0000000000000000e+00  -3.3080016851365444e-07 -3.8217038824449126e-08 0.0000000000000000e+00  -2.9874242739144553e-07 -4.8338348230061055e-08 0.0000000000000000e+00  -2.6254994012681023e-07 -5.9341768596885452e-08 0.0000000000000000e+00  -2.0934790714587137e-07 -6.8590355817287160e-08 0.0000000000000000e+00  -1.6563852678826331e-07 -8.1517538206033823e-08 0.0000000000000000e+00  -7.7395710242333116e-08 -8.5640884668407696e-08 0.0000000000000000e+00  -5.5514530114887777e-08 -1.0627139595073875e-07 0.0000000000000000e+00  1.2347880173619653e-07 -8.6718581957278771e-08 0.0000000000000000e+00  5.5307402600149411e-09 -1.4096513564141401e-07 0.0000000000000000e+00  4.9134809330264808e-07 -2.2722509533749080e-08 0.0000000000000000e+00  -2.4456095181422802e-07 -2.2686492148965364e-07 0.0000000000000000e+00  1.3134941748537476e-06 2.5528650449214253e-07 0.0000000000000000e+00  -2.4225587945939367e-06 -7.3892306803091179e-07 0.0000000000000000e+00  2.7098517906998664e-06 1.3721442076471566e-06 0.0000000000000000e+00  0.0000000000000000e+00 0.0000000000000000e+00 0.0000000000000000e+00  0.0000000000000000e+00 0.0000000000000000e+00 0.0000000000000000e+00  -1.1251318863289623e-06 7.0192114545368096e-07 0.0000000000000000e+00  8.6920790969396644e-07 -3.1184940372287377e-08 0.0000000000000000e+00  -1.2167785907338352e-07 9.1572817225198962e-08 0.0000000000000000e+00  -2.9190537535776557e-07 -4.2407759364375175e-08 0.0000000000000000e+00  -2.9928622353545022e-07 -9.9439635301224644e-08 0.0000000000000000e+00  -3.5114866271532285e-07 -1.2371228289924729e-07 0.0000000000000000e+00  -3.4092061224870556e-07 -1.2878527641177042e-07 0.0000000000000000e+00  -3.1894393191775029e-07 -1.2360511244844300e-07 0.0000000000000000e+00  -2.9206057892354312e-07 -1.1282536155134509e-07 0.0000000000000000e+00  -2.6216884461767158e-07 -9.9395663910838649e-08 0.0000000000000000e+00  -2.3417695935080370e-07 -8.4794875502515540e-08 0.0000000000000000e+00  -2.0939761413119845e-07 -6.9870732386798282e-08 0.0000000000000000e+00  -1.8877248736566953e-07 -5.5087651407191503e-08 0.0000000000000000e+00  -1.7284370579445147e-07 -4.0652646187545482e-08 0.0000000000000000e+00  -1.6181485295810498e-07 -2.6618379944191467e-08 0.0000000000000000e+00  -1.5578300293907496e-07 -1.2957307024216738e-08 0.0000000000000000e+00  -1.5477906617864887e-07 3.6991856258702458e-10 0.0000000000000000e+00  -1.5879395334904155e-07 1.3342483030820713e-08 0.0000000000000000e+00  -1.6775980297725670e-07 2.5810879100134263e-08 0.0000000000000000e+00  -1.8148868051663789e-07 3.7447003957515090e-08 0.0000000000000000e+00  -1.9958756756826127e-07 4.7732951042253281e-08 0.0000000000000000e+00  -2.2137498281890724e-07 5.6004276003816378e-08 0.0000000000000000e+00  -2.4582897600795456e-07 6.1547699763086182e-08 0.0000000000000000e+00  -2.7160060540979660e-07 6.3732201603585546e-08 0.0000000000000000e+00  -2.9709161962140086e-07 6.2136581541191662e-08 0.0000000000000000e+00  -3.2060712395184645e-07 5.6633789180570178e-08 0.0000000000000000e+00  -3.4049898973549623e-07 4.7409950588754771e-08 0.0000000000000000e+00  -3.5535945266659327e-07 3.4911703707462488e-08 0.0000000000000000e+00  -3.6402502794308111e-07 1.9757891744604868e-08 0.0000000000000000e+00  -3.6580159545581852e-07 2.6115966971168629e-09 0.0000000000000000e+00  -3.6004868631204651e-07 -1.5873445533719598e-08 0.0000000000000000e+00  -3.4692788345197746e-07 -3.5208823899992896e-08 0.0000000000000000e+00  -3.2567524730826854e-07 -5.4877992354742018e-08 0.0000000000000000e+00  -2.9794517023263643e-07 -7.4802808094635686e-08 0.0000000000000000e+00  -2.6078519243314906e-07 -9.4231153926308631e-08 0.0000000000000000e+00  -2.2096283861174116e-07 -1.1402504358827596e-07 0.0000000000000000e+00  -1.6567041688903943e-07 -1.3142419078180953e-07 0.0000000000000000e+00  -1.2252683645596764e-07 -1.5109523188606286e-07 0.0000000000000000e+00  -3.7678098040513162e-08 -1.6091617853000286e-07 0.0000000000000000e+00  -2.3760402844778898e-08 -1.8314288798982735e-07 0.0000000000000000e+00  1.4088078498810423e-07 -1.6516466683076379e-07 0.0000000000000000e+00  2.3446701262943726e-09 -2.0830716516344438e-07 0.0000000000000000e+00  4.4875991092309534e-07 -9.1293837754121441e-08 0.0000000000000000e+00  -3.2108044760421459e-07 -2.5696300340313843e-07 0.0000000000000000e+00  1.0950044602270999e-06 1.9078832297330746e-07 0.0000000000000000e+00  -2.5012244713989087e-06 -5.7597360851419331e-07 0.0000000000000000e+00  2.5439130999731122e-06 1.4424332442960160e-06 0.0000000000000000e+00  0.0000000000000000e+00 0.0000000000000000e+00 0.0000000000000000e+00  0.0000000000000000e+00 0.0000000000000000e+00 0.0000000000000000e+00  -2.1867835698863696e-06 1.1715175742826775e-06 0.0000000000000000e+00  1.8618285663093940e-06 -1.2218691225057051e-07 0.0000000000000000e+00  -3.6120069022517412e-07 2.5719452034778381e-07 0.0000000000000000e+00  2.8994669686900673e-08 -1.9517042093220739e-08 0.0000000000000000e+00  -1.1325169517947537e-07 -5.9881884049023788e-08 0.0000000000000000e+00  -1.7065526293868611e-07 -1.1685272041243851e-07 0.0000000000000000e+00  -1.8293045316625728e-07 -1.3671961558243659e-07 0.0000000000000000e+00  -2.0268452901776099e-07 -1.4054405414324211e-07 0.0000000000000000e+00  -2.0548935493287397e-07 -1.3386915580566973e-07 0.0000000000000000e+00  -2.0252099367750308e-07 -1.2107037975534384e-07 0.0000000000000000e+00  -1.9653330974195148e-07 -1.0499787810751222e-07 0.0000000000000000e+00  -1.8897894193251865e-07 -8.7341377879075905e-08 0.0000000000000000e+00  -1.8176621146652342e-07 -6.9119731243156084e-08 0.0000000000000000e+00  -1.7581550496506256e-07 -5.0883786981379240e-08 0.0000000000000000e+00  -1.7178987587771833e-07 -3.2881710997146114e-08 0.0000000000000000e+00  -1.7014815402873006e-07 -1.5177766851812030e-08 0.0000000000000000e+00  -1.7120929293890376e-07 2.2374881720040020e-09 0.0000000000000000e+00  -1.7522292972431769e-07 1.9329786658919678e-08 0.0000000000000000e+00  -1.8236209407842853e-07 3.5904390949328409e-08 0.0000000000000000e+00  -1.9267206231790759e-07 5.1511504048669738e-08 0.0000000000000000e+00  -2.0597921500236551e-07 6.5409957022392300e-08 0.0000000000000000e+00  -2.2179246843426872e-07 7.6620817295381425e-08 0.0000000000000000e+00  -2.3924066950737645e-07 8.4076544570456658e-08 0.0000000000000000e+00  -2.5709428929109164e-07 8.6832281560897429e-08 0.0000000000000000e+00  -2.7387550183206386e-07 8.4274286873525699e-08 0.0000000000000000e+00  -2.8806081921277706e-07 7.6254988409197170e-08 0.0000000000000000e+00  -2.9826927944959658e-07 6.3114989392840189e-08 0.0000000000000000e+00  -3.0348216110050646e-07 4.5588222087233305e-08 0.0000000000000000e+00  -3.0303223673690097e-07 2.4646940076460794e-08 0.0000000000000000e+00  -2.9680468658240388e-07 1.3055955442435423e-09 0.0000000000000000e+00  -2.8475373322961300e-07 -2.3478837943489121e-08 0.0000000000000000e+00  -2.6765365977392800e-07 -4.8986889612150176e-08 0.0000000000000000e+00  -2.4527031736179648e-07 -7.4530467498469539e-08 0.0000000000000000e+00  -2.1985352196387520e-07 -9.9906727564657823e-08 0.0000000000000000e+00  -1.8885505022176522e-07 -1.2423346833196627e-07 0.0000000000000000e+00  -1.5977355974551041e-07 -1.4821672193264996e-07 0.0000000000000000e+00  -1.2003258063715230e-07 -1.6888903601393544e-07 0.0000000000000000e+00  -9.8409499129631472e-08 -1.9050157745737441e-07 0.0000000000000000e+00  -4.0958429316453868e-08 -2.0084557402675437e-07 0.0000000000000000e+00  -6.1731197502152748e-08 -2.2078498321305615e-07 0.0000000000000000e+00  6.0487164838409308e-08 -2.0013681127409882e-07 0.0000000000000000e+00  -1.2468872640813644e-07 -2.3396385275935824e-07 0.0000000000000000e+00  2.5905202857052214e-07 -1.2040556550209880e-07 0.0000000000000000e+00  -5.4818848322297405e-07 -2.6510429885677074e-07 0.0000000000000000e+00  7.7903271539002380e-07 1.3125367875327481e-07 0.0000000000000000e+00  -2.7399792210138832e-06 -5.2329458540197100e-07 0.0000000000000000e+00  2.1479289464702943e-06 1.2340651125963832e-06 0.0000000000000000e+00  0.0000000000000000e+00 0.0000000000000000e+00 0.0000000000000000e+00  0.0000000000000000e+00 0.0000000000000000e+00 0.0000000000000000e+00  -2.4389308745672987e-06 1.2050950494565779e-06 0.0000000000000000e+00  2.4825936602927710e-06 -1.5486484704438143e-07 0.0000000000000000e+00  -6.5532344592114211e-07 3.3778823712219474e-07 0.0000000000000000e+00  3.1469195146390634e-07 -5.5664472997148381e-09 0.0000000000000000e+00  -1.1195347867626050e-07 9.8650351674725061e-09 0.0000000000000000e+00  -5.7212482910005279e-08 -8.1042848609651181e-08 0.0000000000000000e+00  -1.0320973039601716e-07 -1.0639723046567624e-07 0.0000000000000000e+00  -1.3427901326302568e-07 -1.2430794490447664e-07 0.0000000000000000e+00  -1.4857139811245495e-07 -1.2616854268444736e-07 0.0000000000000000e+00  -1.6087473233211193e-07 -1.1939490090058338e-07 0.0000000000000000e+00  -1.6694601911577369e-07 -1.0683384774336128e-07 0.0000000000000000e+00  -1.7006317827032537e-07 -9.0806070543999395e-08 0.0000000000000000e+00  -1.7162087311724507e-07 -7.2887950275099362e-08 0.0000000000000000e+00  -1.7248333574094005e-07 -5.4032642597534876e-08 0.0000000000000000e+00  -1.7347463386790996e-07 -3.4786531972315418e-08 0.0000000000000000e+00  -1.7512132246671807e-07 -1.5392777501762472e-08 0.0000000000000000e+00  -1.7785744937541831e-07 4.0648822889075717e-09 0.0000000000000000e+00  -1.8206655813181608e-07 2.3505532026011805e-08 0.0000000000000000e+00  -1.8808421859972087e-07 4.2676999581176882e-08 0.0000000000000000e+00  -1.9614480729712810e-07 6.0997072538873173e-08 0.0000000000000000e+00  -2.0626051466643836e-07 7.7472045548357892e-08 0.0000000000000000e+00  -2.1808066170258410e-07 9.0753381479363881e-08 0.0000000000000000e+00  -2.3079499412133003e-07 9.9353438042471864e-08 0.0000000000000000e+00  -2.4315826805249765e-07 1.0196972950776565e-07 0.0000000000000000e+00  -2.5365122196005068e-07 9.7806217286826190e-08 0.0000000000000000e+00  -2.6076990634286433e-07 8.6770424503673125e-08 0.0000000000000000e+00  -2.6329120633499476e-07 6.9481282598300322e-08 0.0000000000000000e+00  -2.6053655822659226e-07 4.7096179231142514e-08 0.0000000000000000e+00  -2.5232945027287029e-07 2.1051605189732126e-08 0.0000000000000000e+00  -2.3915627903581079e-07 -7.2227132942261900e-09 0.0000000000000000e+00  -2.2155871525820169e-07 -3.6454092198934144e-08 0.0000000000000000e+00  -2.0091027484765925e-07 -6.5712567463899198e-08 0.0000000000000000e+00  -1.7737597427410873e-07 -9.4181256736711396e-08 0.0000000000000000e+00  -1.5373265624996182e-07 -1.2155820292240911e-07 0.0000000000000000e+00  -1.2744506335896984e-07 -1.4687470050274248e-07 0.0000000000000000e+00  -1.0675849511031633e-07 -1.7065362916989362e-07 0.0000000000000000e+00  -7.8231059991043474e-08 -1.8983150283297074e-07 0.0000000000000000e+00  -7.2526373152687059e-08 -2.0815824685290278e-07 0.0000000000000000e+00  -3.2112421717579329e-08 -2.1384673192150030e-07 0.0000000000000000e+00  -7.6774807564444689e-08 -2.2623508803810234e-07 0.0000000000000000e+00  2.6835761480845198e-08 -1.9912460333912737e-07 0.0000000000000000e+00  -1.8914726517503467e-07 -2.2106183263969789e-07 0.0000000000000000e+00  1.8748585864349054e-07 -1.1079515001282339e-07 0.0000000000000000e+00  -6.5063681935990092e-07 -2.3795110105390214e-07 0.0000000000000000e+00  7.0458467245827244e-07 1.1092410056265475e-07 0.0000000000000000e+00  -2.8070472388036382e-06 -4.6742429008238765e-07 0.0000000000000000e+00  2.1283380705132141e-06 1.0774971835218728e-06 0.0000000000000000e+00  0.0000000000000000e+00 0.0000000000000000e+00 0.0000000000000000e+00  0.0000000000000000e+00 0.0000000000000000e+00 0.0000000000000000e+00  -2.3885817445924573e-06 1.0900320536575365e-06 0.0000000000000000e+00  2.7278117363586263e-06 -1.4368686255993638e-07 0.0000000000000000e+00  -7.9369376683450370e-07 3.3573946812426862e-07 0.0000000000000000e+00  5.3216467927517766e-07 6.7290427389554024e-09 0.0000000000000000e+00  -1.5180784965887600e-07 6.3371487384992474e-08 0.0000000000000000e+00  6.4519946992592132e-08 -4.7021440500418200e-08 0.0000000000000000e+00  -4.7330366810706502e-08 -6.7168275482163369e-08 0.0000000000000000e+00  -5.9679509570063319e-08 -9.7787231833396013e-08 0.0000000000000000e+00  -8.6485108871666615e-08 -1.0556664491959976e-07 0.0000000000000000e+00  -1.0847994385620520e-07 -1.0541205087498632e-07 0.0000000000000000e+00  -1.2370994499251419e-07 -9.7235801823933013e-08 0.0000000000000000e+00  -1.3636142595190255e-07 -8.4268240932046092e-08 0.0000000000000000e+00  -1.4605424098855666e-07 -6.8226998322304333e-08 0.0000000000000000e+00  -1.5390388585120891e-07 -5.0378019150633791e-08 0.0000000000000000e+00  -1.6058045448565312e-07 -3.1509957480799874e-08 0.0000000000000000e+00  -1.6657536951838269e-07 -1.2010648053807796e-08 0.0000000000000000e+00  -1.7237317168492970e-07 7.9741792832348556e-09 0.0000000000000000e+00  -1.7843724075140358e-07 2.8366997850933925e-08 0.0000000000000000e+00  -1.8525088918071031e-07 4.8916444307512402e-08 0.0000000000000000e+00  -1.9324443814563419e-07 6.8948337738427052e-08 0.0000000000000000e+00  -2.0262532761725755e-07 8.7204684623424254e-08 0.0000000000000000e+00  -2.1316096515256058e-07 1.0188933358906464e-07 0.0000000000000000e+00  -2.2401550608584890e-07 1.1097846216819071e-07 0.0000000000000000e+00  -2.3377255417431261e-07 1.1272120869631477e-07 0.0000000000000000e+00  -2.4068279921857436e-07 1.0613623505259050e-07 0.0000000000000000e+00  -2.4310129532535482e-07 9.1292301616776134e-08 0.0000000000000000e+00  -2.3988325149490461e-07 6.9269894256269061e-08 0.0000000000000000e+00  -2.3070324188217108e-07 4.1844970130819301e-08 0.0000000000000000e+00  -2.1595346407015311e-07 1.1062867558984751e-08 0.0000000000000000e+00  -1.9680772686180405e-07 -2.1172156251957871e-08 0.0000000000000000e+00  -1.7445399751177712e-07 -5.3296821296844546e-08 0.0000000000000000e+00  -1.5085052033936035e-07 -8.4258609470286071e-08 0.0000000000000000e+00  -1.2651124349009286e-07 -1.1322919196119290e-07 0.0000000000000000e+00  -1.0457390207650152e-07 -1.399378706