<?xml version="1.0"?>
<VTKFile type="UnstructuredGrid"  version="0.1"  >
<UnstructuredGrid>
<Piece  NumberOfPoints="1617" NumberOfCells="3072">
<Points>
<DataArray  type="Float64"  NumberOfComponents="3"  format="ascii">0 0 0  0.03125 0 0  0.0625 0 0  0.09375 0 0  0.125 0 0  0.15625 0 0  0.1875 0 0  0.21875 0 0  0.25 0 0  0.28125 0 0  0.3125 0 0  0.34375 0 0  0.375 0 0  0.40625 0 0  0.4375 0 0  0.46875 0 0  0.5 0 0  0.53125 0 0  0.5625 0 0  0.59375 0 0  0.625 0 0  0.65625 0 0  0.6875 0 0  0.71875 0 0  0.75 0 0  0.78125 0 0  0.8125 0 0  0.84375 0 0  0.875 0 0  0.90625 0 0  0.9375 0 0  0.96875 0 0  1 0 0  1.03125 0 0  1.0625 0 0  1.09375 0 0  1.125 0 0  1.15625 0 0  1.1875 0 0  1.21875 0 0  1.25 0 0  1.28125 0 0  1.3125 0 0  1.34375 0 0  1.375 0 0  1.40625 0 0  1.4375 0 0  1.46875 0 0  1.5 0 0  0 0.03125 0  0.03125 0.03125 0  0.0625 0.03125 0  0.09375 0.03125 0  0.125 0.03125 0  0.15625 0.03125 0  0.1875 0.03125 0  0.21875 0.03125 0  0.25 0.03125 0  0.28125 0.03125 0  0.3125 0.03125 0  0.34375 0.03125 0  0.375 0.03125 0  0.40625 0.03125 0  0.4375 0.03125 0  0.46875 0.03125 0  0.5 0.03125 0  0.53125 0.03125 0  0.5625 0.03125 0  0.59375 0.03125 0  0.625 0.03125 0  0.65625 0.03125 0  0.6875 0.03125 0  0.71875 0.03125 0  0.75 0.03125 0  0.78125 0.03125 0  0.8125 0.03125 0  0.84375 0.03125 0  0.875 0.03125 0  0.90625 0.03125 0  0.9375 0.03125 0  0.96875 0.03125 0  1 0.03125 0  1.03125 0.03125 0  1.0625 0.03125 0  1.09375 0.03125 0  1.125 0.03125 0  1.15625 0.03125 0  1.1875 0.03125 0  1.21875 0.03125 0  1.25 0.03125 0  1.28125 0.03125 0  1.3125 0.03125 0  1.34375 0.03125 0  1.375 0.03125 0  1.40625 0.03125 0  1.4375 0.03125 0  1.46875 0.03125 0  1.5 0.03125 0  0 0.0625 0  0.03125 0.0625 0  0.0625 0.0625 0  0.09375 0.0625 0  0.125 0.0625 0  0.15625 0.0625 0  0.1875 0.0625 0  0.21875 0.0625 0  0.25 0.0625 0  0.28125 0.0625 0  0.3125 0.0625 0  0.34375 0.0625 0  0.375 0.0625 0  0.40625 0.0625 0  0.4375 0.0625 0  0.46875 0.0625 0  0.5 0.0625 0  0.53125 0.0625 0  0.5625 0.0625 0  0.59375 0.0625 0  0.625 0.0625 0  0.65625 0.0625 0  0.6875 0.0625 0  0.71875 0.0625 0  0.75 0.0625 0  0.78125 0.0625 0  0.8125 0.0625 0  0.84375 0.0625 0  0.875 0.0625 0  0.90625 0.0625 0  0.9375 0.0625 0  0.96875 0.0625 0  1 0.0625 0  1.03125 0.0625 0  1.0625 0.0625 0  1.09375 0.0625 0  1.125 0.0625 0  1.15625 0.0625 0  1.1875 0.0625 0  1.21875 0.0625 0  1.25 0.0625 0  1.28125 0.0625 0  1.3125 0.0625 0  1.34375 0.0625 0  1.375 0.0625 0  1.40625 0.0625 0  1.4375 0.0625 0  1.46875 0.0625 0  1.5 0.0625 0  0 0.09375 0  0.03125 0.09375 0  0.0625 0.09375 0  0.09375 0.09375 0  0.125 0.09375 0  0.15625 0.09375 0  0.1875 0.09375 0  0.21875 0.09375 0  0.25 0.09375 0  0.28125 0.09375 0  0.3125 0.09375 0  0.34375 0.09375 0  0.375 0.09375 0  0.40625 0.09375 0  0.4375 0.09375 0  0.46875 0.09375 0  0.5 0.09375 0  0.53125 0.09375 0  0.5625 0.09375 0  0.59375 0.09375 0  0.625 0.09375 0  0.65625 0.09375 0  0.6875 0.09375 0  0.71875 0.09375 0  0.75 0.09375 0  0.78125 0.09375 0  0.8125 0.09375 0  0.84375 0.09375 0  0.875 0.09375 0  0.90625 0.09375 0  0.9375 0.09375 0  0.96875 0.09375 0  1 0.09375 0  1.03125 0.09375 0  1.0625 0.09375 0  1.09375 0.09375 0  1.125 0.09375 0  1.15625 0.09375 0  1.1875 0.09375 0  1.21875 0.09375 0  1.25 0.09375 0  1.28125 0.09375 0  1.3125 0.09375 0  1.34375 0.09375 0  1.375 0.09375 0  1.40625 0.09375 0  1.4375 0.09375 0  1.46875 0.09375 0  1.5 0.09375 0  0 0.125 0  0.03125 0.125 0  0.0625 0.125 0  0.09375 0.125 0  0.125 0.125 0  0.15625 0.125 0  0.1875 0.125 0  0.21875 0.125 0  0.25 0.125 0  0.28125 0.125 0  0.3125 0.125 0  0.34375 0.125 0  0.375 0.125 0  0.40625 0.125 0  0.4375 0.125 0  0.46875 0.125 0  0.5 0.125 0  0.53125 0.125 0  0.5625 0.125 0  0.59375 0.125 0  0.625 0.125 0  0.65625 0.125 0  0.6875 0.125 0  0.71875 0.125 0  0.75 0.125 0  0.78125 0.125 0  0.8125 0.125 0  0.84375 0.125 0  0.875 0.125 0  0.90625 0.125 0  0.9375 0.125 0  0.96875 0.125 0  1 0.125 0  1.03125 0.125 0  1.0625 0.125 0  1.09375 0.125 0  1.125 0.125 0  1.15625 0.125 0  1.1875 0.125 0  1.21875 0.125 0  1.25 0.125 0  1.28125 0.125 0  1.3125 0.125 0  1.34375 0.125 0  1.375 0.125 0  1.40625 0.125 0  1.4375 0.125 0  1.46875 0.125 0  1.5 0.125 0  0 0.15625 0  0.03125 0.15625 0  0.0625 0.15625 0  0.09375 0.15625 0  0.125 0.15625 0  0.15625 0.15625 0  0.1875 0.15625 0  0.21875 0.15625 0  0.25 0.15625 0  0.28125 0.15625 0  0.3125 0.15625 0  0.34375 0.15625 0  0.375 0.15625 0  0.40625 0.15625 0  0.4375 0.15625 0  0.46875 0.15625 0  0.5 0.15625 0  0.53125 0.15625 0  0.5625 0.15625 0  0.59375 0.15625 0  0.625 0.15625 0  0.65625 0.15625 0  0.6875 0.15625 0  0.71875 0.15625 0  0.75 0.15625 0  0.78125 0.15625 0  0.8125 0.15625 0  0.84375 0.15625 0  0.875 0.15625 0  0.90625 0.15625 0  0.9375 0.15625 0  0.96875 0.15625 0  1 0.15625 0  1.03125 0.15625 0  1.0625 0.15625 0  1.09375 0.15625 0  1.125 0.15625 0  1.15625 0.15625 0  1.1875 0.15625 0  1.21875 0.15625 0  1.25 0.15625 0  1.28125 0.15625 0  1.3125 0.15625 0  1.34375 0.15625 0  1.375 0.15625 0  1.40625 0.15625 0  1.4375 0.15625 0  1.46875 0.15625 0  1.5 0.15625 0  0 0.1875 0  0.03125 0.1875 0  0.0625 0.1875 0  0.09375 0.1875 0  0.125 0.1875 0  0.15625 0.1875 0  0.1875 0.1875 0  0.21875 0.1875 0  0.25 0.1875 0  0.28125 0.1875 0  0.3125 0.1875 0  0.34375 0.1875 0  0.375 0.1875 0  0.40625 0.1875 0  0.4375 0.1875 0  0.46875 0.1875 0  0.5 0.1875 0  0.53125 0.1875 0  0.5625 0.1875 0  0.59375 0.1875 0  0.625 0.1875 0  0.65625 0.1875 0  0.6875 0.1875 0  0.71875 0.1875 0  0.75 0.1875 0  0.78125 0.1875 0  0.8125 0.1875 0  0.84375 0.1875 0  0.875 0.1875 0  0.90625 0.1875 0  0.9375 0.1875 0  0.96875 0.1875 0  1 0.1875 0  1.03125 0.1875 0  1.0625 0.1875 0  1.09375 0.1875 0  1.125 0.1875 0  1.15625 0.1875 0  1.1875 0.1875 0  1.21875 0.1875 0  1.25 0.1875 0  1.28125 0.1875 0  1.3125 0.1875 0  1.34375 0.1875 0  1.375 0.1875 0  1.40625 0.1875 0  1.4375 0.1875 0  1.46875 0.1875 0  1.5 0.1875 0  0 0.21875 0  0.03125 0.21875 0  0.0625 0.21875 0  0.09375 0.21875 0  0.125 0.21875 0  0.15625 0.21875 0  0.1875 0.21875 0  0.21875 0.21875 0  0.25 0.21875 0  0.28125 0.21875 0  0.3125 0.21875 0  0.34375 0.21875 0  0.375 0.21875 0  0.40625 0.21875 0  0.4375 0.21875 0  0.46875 0.21875 0  0.5 0.21875 0  0.53125 0.21875 0  0.5625 0.21875 0  0.59375 0.21875 0  0.625 0.21875 0  0.65625 0.21875 0  0.6875 0.21875 0  0.71875 0.21875 0  0.75 0.21875 0  0.78125 0.21875 0  0.8125 0.21875 0  0.84375 0.21875 0  0.875 0.21875 0  0.90625 0.21875 0  0.9375 0.21875 0  0.96875 0.21875 0  1 0.21875 0  1.03125 0.21875 0  1.0625 0.21875 0  1.09375 0.21875 0  1.125 0.21875 0  1.15625 0.21875 0  1.1875 0.21875 0  1.21875 0.21875 0  1.25 0.21875 0  1.28125 0.21875 0  1.3125 0.21875 0  1.34375 0.21875 0  1.375 0.21875 0  1.40625 0.21875 0  1.4375 0.21875 0  1.46875 0.21875 0  1.5 0.21875 0  0 0.25 0  0.03125 0.25 0  0.0625 0.25 0  0.09375 0.25 0  0.125 0.25 0  0.15625 0.25 0  0.1875 0.25 0  0.21875 0.25 0  0.25 0.25 0  0.28125 0.25 0  0.3125 0.25 0  0.34375 0.25 0  0.375 0.25 0  0.40625 0.25 0  0.4375 0.25 0  0.46875 0.25 0  0.5 0.25 0  0.53125 0.25 0  0.5625 0.25 0  0.59375 0.25 0  0.625 0.25 0  0.65625 0.25 0  0.6875 0.25 0  0.71875 0.25 0  0.75 0.25 0  0.78125 0.25 0  0.8125 0.25 0  0.84375 0.25 0  0.875 0.25 0  0.90625 0.25 0  0.9375 0.25 0  0.96875 0.25 0  1 0.25 0  1.03125 0.25 0  1.0625 0.25 0  1.09375 0.25 0  1.125 0.25 0  1.15625 0.25 0  1.1875 0.25 0  1.21875 0.25 0  1.25 0.25 0  1.28125 0.25 0  1.3125 0.25 0  1.34375 0.25 0  1.375 0.25 0  1.40625 0.25 0  1.4375 0.25 0  1.46875 0.25 0  1.5 0.25 0  0 0.28125 0  0.03125 0.28125 0  0.0625 0.28125 0  0.09375 0.28125 0  0.125 0.28125 0  0.15625 0.28125 0  0.1875 0.28125 0  0.21875 0.28125 0  0.25 0.28125 0  0.28125 0.28125 0  0.3125 0.28125 0  0.34375 0.28125 0  0.375 0.28125 0  0.40625 0.28125 0  0.4375 0.28125 0  0.46875 0.28125 0  0.5 0.28125 0  0.53125 0.28125 0  0.5625 0.28125 0  0.59375 0.28125 0  0.625 0.28125 0  0.65625 0.28125 0  0.6875 0.28125 0  0.71875 0.28125 0  0.75 0.28125 0  0.78125 0.28125 0  0.8125 0.28125 0  0.84375 0.28125 0  0.875 0.28125 0  0.90625 0.28125 0  0.9375 0.28125 0  0.96875 0.28125 0  1 0.28125 0  1.03125 0.28125 0  1.0625 0.28125 0  1.09375 0.28125 0  1.125 0.28125 0  1.15625 0.28125 0  1.1875 0.28125 0  1.21875 0.28125 0  1.25 0.28125 0  1.28125 0.28125 0  1.3125 0.28125 0  1.34375 0.28125 0  1.375 0.28125 0  1.40625 0.28125 0  1.4375 0.28125 0  1.46875 0.28125 0  1.5 0.28125 0  0 0.3125 0  0.03125 0.3125 0  0.0625 0.3125 0  0.09375 0.3125 0  0.125 0.3125 0  0.15625 0.3125 0  0.1875 0.3125 0  0.21875 0.3125 0  0.25 0.3125 0  0.28125 0.3125 0  0.3125 0.3125 0  0.34375 0.3125 0  0.375 0.3125 0  0.40625 0.3125 0  0.4375 0.3125 0  0.46875 0.3125 0  0.5 0.3125 0  0.53125 0.3125 0  0.5625 0.3125 0  0.59375 0.3125 0  0.625 0.3125 0  0.65625 0.3125 0  0.6875 0.3125 0  0.71875 0.3125 0  0.75 0.3125 0  0.78125 0.3125 0  0.8125 0.3125 0  0.84375 0.3125 0  0.875 0.3125 0  0.90625 0.3125 0  0.9375 0.3125 0  0.96875 0.3125 0  1 0.3125 0  1.03125 0.3125 0  1.0625 0.3125 0  1.09375 0.3125 0  1.125 0.3125 0  1.15625 0.3125 0  1.1875 0.3125 0  1.21875 0.3125 0  1.25 0.3125 0  1.28125 0.3125 0  1.3125 0.3125 0  1.34375 0.3125 0  1.375 0.3125 0  1.40625 0.3125 0  1.4375 0.3125 0  1.46875 0.3125 0  1.5 0.3125 0  0 0.34375 0  0.03125 0.34375 0  0.0625 0.34375 0  0.09375 0.34375 0  0.125 0.34375 0  0.15625 0.34375 0  0.1875 0.34375 0  0.21875 0.34375 0  0.25 0.34375 0  0.28125 0.34375 0  0.3125 0.34375 0  0.34375 0.34375 0  0.375 0.34375 0  0.40625 0.34375 0  0.4375 0.34375 0  0.46875 0.34375 0  0.5 0.34375 0  0.53125 0.34375 0  0.5625 0.34375 0  0.59375 0.34375 0  0.625 0.34375 0  0.65625 0.34375 0  0.6875 0.34375 0  0.71875 0.34375 0  0.75 0.34375 0  0.78125 0.34375 0  0.8125 0.34375 0  0.84375 0.34375 0  0.875 0.34375 0  0.90625 0.34375 0  0.9375 0.34375 0  0.96875 0.34375 0  1 0.34375 0  1.03125 0.34375 0  1.0625 0.34375 0  1.09375 0.34375 0  1.125 0.34375 0  1.15625 0.34375 0  1.1875 0.34375 0  1.21875 0.34375 0  1.25 0.34375 0  1.28125 0.34375 0  1.3125 0.34375 0  1.34375 0.34375 0  1.375 0.34375 0  1
[...]
<PointData  Vectors="f_17"> 
<DataArray  type="Float64"  Name="f_17"  NumberOfComponents="3" format="ascii">0.0000000000000000e+00 0.0000000000000000e+00 0.0000000000000000e+00  0.0000000000000000e+00 0.0000000000000000e+00 0.0000000000000000e+00  0.0000000000000000e+00 0.0000000000000000e+00 0.0000000000000000e+00  0.0000000000000000e+00 0.0000000000000000e+00 0.0000000000000000e+00  0.0000000000000000e+00 0.0000000000000000e+00 0.0000000000000000e+00  0.0000000000000000e+00 0.0000000000000000e+00 0.0000000000000000e+00  0.0000000000000000e+00 0.0000000000000000e+00 0.0000000000000000e+00  0.0000000000000000e+00 0.0000000000000000e+00 0.0000000000000000e+00  0.0000000000000000e+00 0.0000000000000000e+00 0.0000000000000000e+00  0.0000000000000000e+00 0.0000000000000000e+00 0.0000000000000000e+00  0.0000000000000000e+00 0.0000000000000000e+00 0.0000000000000000e+00  0.0000000000000000e+00 0.0000000000000000e+00 0.0000000000000000e+00  0.0000000000000000e+00 0.0000000000000000e+00 0.0000000000000000e+00  0.0000000000000000e+00 0.0000000000000000e+00 0.0000000000000000e+00  0.0000000000000000e+00 0.0000000000000000e+00 0.0000000000000000e+00  0.0000000000000000e+00 0.0000000000000000e+00 0.0000000000000000e+00  0.0000000000000000e+00 0.0000000000000000e+00 0.0000000000000000e+00  0.0000000000000000e+00 0.0000000000000000e+00 0.0000000000000000e+00  0.0000000000000000e+00 0.0000000000000000e+00 0.0000000000000000e+00  0.0000000000000000e+00 0.0000000000000000e+00 0.0000000000000000e+00  0.0000000000000000e+00 0.0000000000000000e+00 0.0000000000000000e+00  0.0000000000000000e+00 0.0000000000000000e+00 0.0000000000000000e+00  0.0000000000000000e+00 0.0000000000000000e+00 0.0000000000000000e+00  0.0000000000000000e+00 0.0000000000000000e+00 0.0000000000000000e+00  0.0000000000000000e+00 0.0000000000000000e+00 0.0000000000000000e+00  0.0000000000000000e+00 0.0000000000000000e+00 0.0000000000000000e+00  0.0000000000000000e+00 0.0000000000000000e+00 0.0000000000000000e+00  0.0000000000000000e+00 0.0000000000000000e+00 0.0000000000000000e+00  0.0000000000000000e+00 0.0000000000000000e+00 0.0000000000000000e+00  0.0000000000000000e+00 0.0000000000000000e+00 0.0000000000000000e+00  0.0000000000000000e+00 0.0000000000000000e+00 0.0000000000000000e+00  0.0000000000000000e+00 0.0000000000000000e+00 0.0000000000000000e+00  0.0000000000000000e+00 0.0000000000000000e+00 0.0000000000000000e+00  0.0000000000000000e+00 0.0000000000000000e+00 0.0000000000000000e+00  0.0000000000000000e+00 0.0000000000000000e+00 0.0000000000000000e+00  0.0000000000000000e+00 0.0000000000000000e+00 0.0000000000000000e+00  0.0000000000000000e+00 0.0000000000000000e+00 0.0000000000000000e+00  0.0000000000000000e+00 0.0000000000000000e+00 0.0000000000000000e+00  0.0000000000000000e+00 0.0000000000000000e+00 0.0000000000000000e+00  0.0000000000000000e+00 0.0000000000000000e+00 0.0000000000000000e+00  0.0000000000000000e+00 0.0000000000000000e+00 0.0000000000000000e+00  0.0000000000000000e+00 0.0000000000000000e+00 0.0000000000000000e+00  0.0000000000000000e+00 0.0000000000000000e+00 0.0000000000000000e+00  0.0000000000000000e+00 0.0000000000000000e+00 0.0000000000000000e+00  0.0000000000000000e+00 0.0000000000000000e+00 0.0000000000000000e+00  0.0000000000000000e+00 0.0000000000000000e+00 0.0000000000000000e+00  0.0000000000000000e+00 0.0000000000000000e+00 0.0000000000000000e+00  0.0000000000000000e+00 0.0000000000000000e+00 0.0000000000000000e+00  0.0000000000000000e+00 0.0000000000000000e+00 0.0000000000000000e+00  0.0000000000000000e+00 0.0000000000000000e+00 0.0000000000000000e+00  -8.5979455862809387e-08 -1.5603266403784109e-08 0.0000000000000000e+00  -1.5830245420387449e-07 1.2618424108449134e-07 0.0000000000000000e+00  -8.9916024709841301e-08 1.4274158670329450e-08 0.0000000000000000e+00  -3.0035883542095487e-07 -2.1051669270447597e-08 0.0000000000000000e+00  -3.0527271879194938e-07 -4.9904289257757444e-08 0.0000000000000000e+00  -3.1323807203029621e-07 -5.7905644584570837e-08 0.0000000000000000e+00  -3.2296922105691200e-07 -5.3602240754941841e-08 0.0000000000000000e+00  -3.1996609033375155e-07 -4.6384625539954861e-08 0.0000000000000000e+00  -3.1641837156826307e-07 -3.7675776939799335e-08 0.0000000000000000e+00  -3.1287179657017957e-07 -2.8669922687366177e-08 0.0000000000000000e+00  -3.1093784602445392e-07 -1.9842422166660157e-08 0.0000000000000000e+00  -3.1212291137936874e-07 -1.1322446065207990e-08 0.0000000000000000e+00  -3.1708316328953780e-07 -3.1738779691058373e-09 0.0000000000000000e+00  -3.2632335183306146e-07 4.6102619119575082e-09 0.0000000000000000e+00  -3.4016085753528457e-07 1.2073418102467211e-08 0.0000000000000000e+00  -3.5879440372051252e-07 1.9266034757435191e-08 0.0000000000000000e+00  -3.8235036576473859e-07 2.6213829669489479e-08 0.0000000000000000e+00  -4.1087041199814647e-07 3.2881268636880977e-08 0.0000000000000000e+00  -4.4426995374124741e-07 3.9137868597603529e-08 0.0000000000000000e+00  -4.8226543023012592e-07 4.4737865260275781e-08 0.0000000000000000e+00  -5.2428642556584924e-07 4.9324447935998451e-08 0.0000000000000000e+00  -5.6939923732452277e-07 5.2465619004661278e-08 0.0000000000000000e+00  -6.1626772647415026e-07 5.3719313937717079e-08 0.0000000000000000e+00  -6.6317980457954922e-07 5.2714170493335811e-08 0.0000000000000000e+00  -7.0813718490716873e-07 4.9224650918236456e-08 0.0000000000000000e+00  -7.4901715190876302e-07 4.3218312429978293e-08 0.0000000000000000e+00  -7.8373252446934714e-07 3.4864160560762623e-08 0.0000000000000000e+00  -8.1044177080181167e-07 2.4496798759950290e-08 0.0000000000000000e+00  -8.2759106507549934e-07 1.2562483458621816e-08 0.0000000000000000e+00  -8.3415404186727082e-07 -4.6843849893221025e-10 0.0000000000000000e+00  -8.2927482158742749e-07 -1.4123596475029015e-08 0.0000000000000000e+00  -8.1297448804516568e-07 -2.8064626857327435e-08 0.0000000000000000e+00  -7.8452943459785047e-07 -4.1890245085202417e-08 0.0000000000000000e+00  -7.4561714560610379e-07 -5.5620139132407706e-08 0.0000000000000000e+00  -6.9358906001328818e-07 -6.8573657430564809e-08 0.0000000000000000e+00  -6.3521882799291645e-07 -8.1785458874944464e-08 0.0000000000000000e+00  -5.5823528864553800e-07 -9.2535469307392976e-08 0.0000000000000000e+00  -4.8994416942750048e-07 -1.0618970399890124e-07 0.0000000000000000e+00  -3.7697303898879871e-07 -1.1021033140381998e-07 0.0000000000000000e+00  -3.3135724468720453e-07 -1.2994986320521176e-07 0.0000000000000000e+00  -1.2991466607837134e-07 -1.0881436715948591e-07 0.0000000000000000e+00  -2.2822212650292970e-07 -1.6127129826902877e-07 0.0000000000000000e+00  2.7620302594772231e-07 -4.1700912188437113e-08 0.0000000000000000e+00  -4.4722918268631619e-07 -2.4670486312515051e-07 0.0000000000000000e+00  1.1191221493417632e-06 2.2544599162058505e-07 0.0000000000000000e+00  -2.4853291068780552e-06 -7.6305982498218881e-07 0.0000000000000000e+00  2.9259506617679206e-06 1.3371380195667367e-06 0.0000000000000000e+00  0.0000000000000000e+00 0.0000000000000000e+00 0.0000000000000000e+00  0.0000000000000000e+00 0.0000000000000000e+00 0.0000000000000000e+00  -1.4679429472509646e-06 6.4158358695138729e-07 0.0000000000000000e+00  7.6244535842385433e-07 -4.7297040771212662e-09 0.0000000000000000e+00  -1.2978237440034692e-07 1.4427625341690105e-07 0.0000000000000000e+00  -3.0459151130750063e-07 3.1130311639734939e-08 0.0000000000000000e+00  -3.3394939803984907e-07 -2.1542873275317120e-08 0.0000000000000000e+00  -4.1136356700398595e-07 -4.7845973975980331e-08 0.0000000000000000e+00  -4.2949947941578279e-07 -5.7494868835513687e-08 0.0000000000000000e+00  -4.3660808536658800e-07 -5.7493991620737520e-08 0.0000000000000000e+00  -4.3818993842497694e-07 -5.1477182450337478e-08 0.0000000000000000e+00  -4.3566131024401538e-07 -4.1982294078044106e-08 0.0000000000000000e+00  -4.3387751628581481e-07 -3.0385512589323141e-08 0.0000000000000000e+00  -4.3432183991026029e-07 -1.7587077647224226e-08 0.0000000000000000e+00  -4.3819944618976322e-07 -4.1740260248821146e-09 0.0000000000000000e+00  -4.4633099829963591e-07 9.5016193509574912e-09 0.0000000000000000e+00  -4.5916682281577374e-07 2.3240996260431759e-08 0.0000000000000000e+00  -4.7699538622475886e-07 3.6928660262053045e-08 0.0000000000000000e+00  -4.9997058883438284e-07 5.0458332027528816e-08 0.0000000000000000e+00  -5.2812776648041634e-07 6.3650059186315398e-08 0.0000000000000000e+00  -5.6135275014913630e-07 7.6170926856944183e-08 0.0000000000000000e+00  -5.9930528671131713e-07 8.7479738173395773e-08 0.0000000000000000e+00  -6.4131845118926699e-07 9.6820513990842410e-08 0.0000000000000000e+00  -6.8630552370588753e-07 1.0328345410688325e-07 0.0000000000000000e+00  -7.3271173612218228e-07 1.0593241400045636e-07 0.0000000000000000e+00  -7.7855129252319930e-07 1.0397222783139979e-07 0.0000000000000000e+00  -8.2152999296758378e-07 9.6909665894985707e-08 0.0000000000000000e+00  -8.5925942961796186e-07 8.4658499211955053e-08 0.0000000000000000e+00  -8.8946770507932323e-07 6.7560093455827509e-08 0.0000000000000000e+00  -9.1025345088565311e-07 4.6312593740981992e-08 0.0000000000000000e+00  -9.2013182519980281e-07 2.1850087357952204e-08 0.0000000000000000e+00  -9.1827937745876035e-07 -4.8233004119041136e-09 0.0000000000000000e+00  -9.0411438288441561e-07 -3.2721453357219656e-08 0.0000000000000000e+00  -8.7802877049027259e-07 -6.1056578753952318e-08 0.0000000000000000e+00  -8.3962943614819416e-07 -8.9058039618024777e-08 0.0000000000000000e+00  -7.9106388307829464e-07 -1.1643927482993822e-07 0.0000000000000000e+00  -7.2995423086922583e-07 -1.4227993505358302e-07 0.0000000000000000e+00  -6.6373927030170724e-07 -1.6730390182537695e-07 0.0000000000000000e+00  -5.8028796435513925e-07 -1.8864328073732729e-07 0.0000000000000000e+00  -5.0801499340650256e-07 -2.1088907520715658e-07 0.0000000000000000e+00  -3.9362224575604143e-07 -2.2191972137712984e-07 0.0000000000000000e+00  -3.5060819322240554e-07 -2.4410994104270542e-07 0.0000000000000000e+00  -1.5710017376779986e-07 -2.2522413688900538e-07 0.0000000000000000e+00  -2.6776782351902660e-07 -2.6737353288989148e-07 0.0000000000000000e+00  2.0851840579138781e-07 -1.5078035544638382e-07 0.0000000000000000e+00  -5.3280800919332155e-07 -3.2079765164864525e-07 0.0000000000000000e+00  9.2314623580962427e-07 1.1339059803962311e-07 0.0000000000000000e+00  -2.5047302537930866e-06 -6.5149483630288060e-07 0.0000000000000000e+00  2.8560116181063097e-06 1.3358016302709266e-06 0.0000000000000000e+00  0.0000000000000000e+00 0.0000000000000000e+00 0.0000000000000000e+00  0.0000000000000000e+00 0.0000000000000000e+00 0.0000000000000000e+00  -2.5565192821839225e-06 1.1227409909816804e-06 0.0000000000000000e+00  1.7114048133407563e-06 -9.9728860653977212e-08 0.0000000000000000e+00  -4.0827735445005898e-07 3.1031387532089526e-07 0.0000000000000000e+00  -2.4365616032096842e-08 6.5728334570601176e-08 0.0000000000000000e+00  -1.8170442227853169e-07 3.7551835235967518e-08 0.0000000000000000e+00  -2.5595047568218677e-07 -1.6825448186966685e-08 0.0000000000000000e+00  -2.8951756772958720e-07 -3.9277694183603382e-08 0.0000000000000000e+00  -3.3293927623062191e-07 -4.7813638881633361e-08 0.0000000000000000e+00  -3.6014455919723381e-07 -4.6228064250267163e-08 0.0000000000000000e+00  -3.8150723899574914e-07 -3.8010616492655292e-08 0.0000000000000000e+00  -3.9943366461975609e-07 -2.5614820202465882e-08 0.0000000000000000e+00  -4.1530145567209121e-07 -1.0630185185796388e-08 0.0000000000000000e+00  -4.3111373988105605e-07 5.8659583928494581e-09 0.0000000000000000e+00  -4.4795475330425780e-07 2.3184725861718702e-08 0.0000000000000000e+00  -4.6665989866829086e-07 4.0904185776698067e-08 0.0000000000000000e+00  -4.8783145938206215e-07 5.8768473935750029e-08 0.0000000000000000e+00  -5.1187986433022515e-07 7.6577642050796537e-08 0.0000000000000000e+00  -5.3907731898319926e-07 9.4059724877184529e-08 0.0000000000000000e+00  -5.6953320815514656e-07 1.1074070556510466e-07 0.0000000000000000e+00  -6.0312277098893162e-07 1.2584263133086373e-07 0.0000000000000000e+00  -6.3937509039534355e-07 1.3825483969505643e-07 0.0000000000000000e+00  -6.7735999815441942e-07 1.4661604757171225e-07 0.0000000000000000e+00  -7.1562734431706006e-07 1.4951256644560774e-07 0.0000000000000000e+00  -7.5225595531274032e-07 1.4575008898550647e-07 0.0000000000000000e+00  -7.8501898643084071e-07 1.3461773246878107e-07 0.0000000000000000e+00  -8.1166290294965448e-07 1.1605624950011787e-07 0.0000000000000000e+00  -8.3017734219563134e-07 9.0679435425132775e-08 0.0000000000000000e+00  -8.3908377587916594e-07 5.9644790584223937e-08 0.0000000000000000e+00  -8.3746629561306027e-07 2.4440686486813667e-08 0.0000000000000000e+00  -8.2518317513830937e-07 -1.3374649062374101e-08 0.0000000000000000e+00  -8.0236474363059172e-07 -5.2329443342941138e-08 0.0000000000000000e+00  -7.7013186422409116e-07 -9.1256916082584793e-08 0.0000000000000000e+00  -7.2872083547385214e-07 -1.2910715456679397e-07 0.0000000000000000e+00  -6.8094564613665426e-07 -1.6540159433114620e-07 0.0000000000000000e+00  -6.2486174672612977e-07 -1.9905937068960041e-07 0.0000000000000000e+00  -5.6861806261046006e-07 -2.3065383528617980e-07 0.0000000000000000e+00  -5.0022228872713348e-07 -2.5714849773135223e-07 0.0000000000000000e+00  -4.4908174554047820e-07 -2.8280136209606871e-07 0.0000000000000000e+00  -3.6152490103929398e-07 -2.9552510821077805e-07 0.0000000000000000e+00  -3.5210297471327556e-07 -3.1650039803509117e-07 0.0000000000000000e+00  -1.9887400254518232e-07 -2.9614180680429192e-07 0.0000000000000000e+00  -3.5248722731486475e-07 -3.3062790899534283e-07 0.0000000000000000e+00  6.6885905929779576e-08 -2.1973405052475115e-07 0.0000000000000000e+00  -7.0409662215791012e-07 -3.7147845677469263e-07 0.0000000000000000e+00  6.7090977758770884e-07 1.0688677281374518e-08 0.0000000000000000e+00  -2.6797642010961774e-06 -6.4147508375110409e-07 0.0000000000000000e+00  2.4969024630768101e-06 1.1006717377091777e-06 0.0000000000000000e+00  0.0000000000000000e+00 0.0000000000000000e+00 0.0000000000000000e+00  0.0000000000000000e+00 0.0000000000000000e+00 0.0000000000000000e+00  -2.8148328763627397e-06 1.1800544980825978e-06 0.0000000000000000e+00  2.3235186347834872e-06 -1.2287532921208146e-07 0.0000000000000000e+00  -7.1497334435781669e-07 3.9599103721659653e-07 0.0000000000000000e+00  2.4478704883635334e-07 8.6213106762665785e-08 0.0000000000000000e+00  -1.9489374785376734e-07 1.1895526742166046e-07 0.0000000000000000e+00  -1.5223905402877469e-07 3.5275576843401857e-08 0.0000000000000000e+00  -2.1413850688797393e-07 1.0346942106089546e-08 0.0000000000000000e+00  -2.6352131831887708e-07 -1.0544112251409177e-08 0.0000000000000000e+00  -2.9743828741430227e-07 -1.6715102348265554e-08 0.0000000000000000e+00  -3.2998825257617930e-07 -1.4302757642712311e-08 0.0000000000000000e+00  -3.5649219542049437e-07 -5.4657407931072529e-09 0.0000000000000000e+00  -3.8002028460053149e-07 7.7682822862161215e-09 0.0000000000000000e+00  -4.0193462817426486e-07 2.3876620607515158e-08 0.0000000000000000e+00  -4.2315173784205433e-07 4.1817466267720572e-08 0.0000000000000000e+00  -4.4458034694954618e-07 6.0876792453055460e-08 0.0000000000000000e+00  -4.6682396591275088e-07 8.0596433438571953e-08 0.0000000000000000e+00  -4.9036104823713825e-07 1.0063831405434698e-07 0.0000000000000000e+00  -5.1556792035004704e-07 1.2061953568654589e-07 0.0000000000000000e+00  -5.4270141335232351e-07 1.3992283269650985e-07 0.0000000000000000e+00  -5.7182099297376103e-07 1.5752748634142084e-07 0.0000000000000000e+00  -6.0263969045263243e-07 1.7193697680140215e-07 0.0000000000000000e+00  -6.3436026174340680e-07 1.8127572070364179e-07 0.0000000000000000e+00  -6.6557434706863110e-07 1.8357760031400703e-07 0.0000000000000000e+00  -6.9431602494478814e-07 1.7720233699669626e-07 0.0000000000000000e+00  -7.1828999628264748e-07 1.6124148778638449e-07 0.0000000000000000e+00  -7.3525635805266380e-07 1.3576350798181321e-07 0.0000000000000000e+00  -7.4339586577674179e-07 1.0181473158435169e-07 0.0000000000000000e+00  -7.4165088163636214e-07 6.1186516267786523e-08 0.0000000000000000e+00  -7.2971861540926330e-07 1.6062584096739030e-08 0.0000000000000000e+00  -7.0820510836183305e-07 -3.1366097723308332e-08 0.0000000000000000e+00  -6.7797570760632660e-07 -7.9133213315857954e-08 0.0000000000000000e+00  -6.4087749221452598e-07 -1.2573392510921783e-07 0.0000000000000000e+00  -5.9763529435613895e-07 -1.6991526156268046e-07 0.0000000000000000e+00  -5.5163223063554223e-07 -2.1107418953074581e-07 0.0000000000000000e+00  -5.0092445939168311e-07 -2.4806051091758360e-07 0.0000000000000000e+00  -4.5434099735940534e-07 -2.8131902931147403e-07 0.0000000000000000e+00  -3.9889823053090224e-07 -3.0780644528320136e-07 0.0000000000000000e+00  -3.6571430027461104e-07 -3.3140271355465942e-07 0.0000000000000000e+00  -2.9730473424792963e-07 -3.4059630461595400e-07 0.0000000000000000e+00  -3.1371867869341722e-07 -3.5521548960369396e-07 0.0000000000000000e+00  -1.8066272686131257e-07 -3.2981891261297752e-07 0.0000000000000000e+00  -3.6621859280324683e-07 -3.5412291799749288e-07 0.0000000000000000e+00  4.5032818793384930e-08 -2.4826712108399647e-07 0.0000000000000000e+00  -7.5870578724038876e-07 -3.8338905788086272e-07 0.0000000000000000e+00  6.3855977108843912e-07 -4.6684579921059013e-08 0.0000000000000000e+00  -2.7169685822692715e-06 -6.1768780678993419e-07 0.0000000000000000e+00  2.4866102407589300e-06 9.2797624513844019e-07 0.0000000000000000e+00  0.0000000000000000e+00 0.0000000000000000e+00 0.0000000000000000e+00  0.0000000000000000e+00 0.0000000000000000e+00 0.0000000000000000e+00  -2.7628584488675230e-06 1.0869603960517074e-06 0.0000000000000000e+00  2.5724571915692347e-06 -9.5958614653473222e-08 0.0000000000000000e+00  -8.5160426337229971e-07 4.0464380140475340e-07 0.0000000000000000e+00  4.6293809546644295e-07 1.0557965562161145e-07 0.0000000000000000e+00  -2.3362123246110337e-07 1.8093338293583467e-07 0.0000000000000000e+00  -2.6898625260752546e-08 8.0496652408740981e-08 0.0000000000000000e+00  -1.5092909737399993e-07 6.3380697898786200e-08 0.0000000000000000e+00  -1.7703210106123393e-07 3.1794055874260485e-08 0.0000000000000000e+00  -2.1891076514763934e-07 2.1018810750627800e-08 0.0000000000000000e+00  -2.5685898336888206e-07 1.7608897425573645e-08 0.0000000000000000e+00  -2.8857164633766909e-07 2.2514650803545304e-08 0.0000000000000000e+00  -3.1802756994196260e-07 3.2957997892669705e-08 0.0000000000000000e+00  -3.4475610760517141e-07 4.7384463574315881e-08 0.0000000000000000e+00  -3.6985383566614592e-07 6.4502237957630387e-08 0.0000000000000000e+00  -3.9400458179932827e-07 8.3379929005696194e-08 0.0000000000000000e+00  -4.1771485759720544e-07 1.0341114431714406e-07 0.0000000000000000e+00  -4.4146659189758447e-07 1.2417092930495901e-07 0.0000000000000000e+00  -4.6568712633535394e-07 1.4523531569503717e-07 0.0000000000000000e+00  -4.9077192595314123e-07 1.6591982060905761e-07 0.0000000000000000e+00  -5.1698416810683599e-07 1.8501328639342925e-07 0.0000000000000000e+00  -5.4424775519217222e-07 2.0062326743710865e-07 0.0000000000000000e+00  -5.7189312145399601e-07 2.1027247034774964e-07 0.0000000000000000e+00  -5.9847776610654128e-07 2.1131164434992184e-07 0.0000000000000000e+00  -6.2183716741389519e-07 2.0155572004379478e-07 0.0000000000000000e+00  -6.3941599336992159e-07 1.7990575868590461e-07 0.0000000000000000e+00  -6.4882963079571276e-07 1.4669613171376415e-07 0.0000000000000000e+00  -6.4838644054890387e-07 1.0363591543738027e-07 0.0000000000000000e+00  -6.3749380239189218e-07 5.3392636193792943e-08 0.0000000000000000e+00  -6.1657908985674874e-07 -9.7762079419975870e-10 0.0000000000000000e+00  -5.8711769689344621e-07 -5.6583367963190366e-08 0.0000000000000000e+00  -5.5079048651471470e-07 -1.1100517276529753e-07 0.0000000000000000e+00  -5.1015926782642691e-07 -1.6252389999632283e-07 0.0000000000000000e+00  -4.6637252186889561e-07 -2.0984804605631564e-07 0.0000000000000000e+00  -4.2318953275230593e-07 -2.5243124989441488e-07 0.0000