<?xml version="1.0"?>
<VTKFile type="UnstructuredGrid"  version="0.1"  >
<UnstructuredGrid>
<Piece  NumberOfPoints="1617" NumberOfCells="3072">
<Points>
<DataArray  type="Float64"  NumberOfComponents="3"  format="ascii">0 0 0  0.03125 0 0  0.0625 0 0  0.09375 0 0  0.125 0 0  0.15625 0 0  0.1875 0 0  0.21875 0 0  0.25 0 0  0.28125 0 0  0.3125 0 0  0.34375 0 0  0.375 0 0  0.40625 0 0  0.4375 0 0  0.46875 0 0  0.5 0 0  0.53125 0 0  0.5625 0 0  0.59375 0 0  0.625 0 0  0.65625 0 0  0.6875 0 0  0.71875 0 0  0.75 0 0  0.78125 0 0  0.8125 0 0  0.84375 0 0  0.875 0 0  0.90625 0 0  0.9375 0 0  0.96875 0 0  1 0 0  1.03125 0 0  1.0625 0 0  1.09375 0 0  1.125 0 0  1.15625 0 0  1.1875 0 0  1.21875 0 0  1.25 0 0  1.28125 0 0  1.3125 0 0  1.34375 0 0  1.375 0 0  1.40625 0 0  1.4375 0 0  1.46875 0 0  1.5 0 0  0 0.03125 0  0.03125 0.03125 0  0.0625 0.03125 0  0.09375 0.03125 0  0.125 0.03125 0  0.15625 0.03125 0  0.1875 0.03125 0  0.21875 0.03125 0  0.25 0.03125 0  0.28125 0.03125 0  0.3125 0.03125 0  0.34375 0.03125 0  0.375 0.03125 0  0.40625 0.03125 0  0.4375 0.03125 0  0.46875 0.03125 0  0.5 0.03125 0  0.53125 0.03125 0  0.5625 0.03125 0  0.59375 0.03125 0  0.625 0.03125 0  0.65625 0.03125 0  0.6875 0.03125 0  0.71875 0.03125 0  0.75 0.03125 0  0.78125 0.03125 0  0.8125 0.03125 0  0.84375 0.03125 0  0.875 0.03125 0  0.90625 0.03125 0  0.9375 0.03125 0  0.96875 0.03125 0  1 0.03125 0  1.03125 0.03125 0  1.0625 0.03125 0  1.09375 0.03125 0  1.125 0.03125 0  1.15625 0.03125 0  1.1875 0.03125 0  1.21875 0.03125 0  1.25 0.03125 0  1.28125 0.03125 0  1.3125 0.03125 0  1.34375 0.03125 0  1.375 0.03125 0  1.40625 0.03125 0  1.4375 0.03125 0  1.46875 0.03125 0  1.5 0.03125 0  0 0.0625 0  0.03125 0.0625 0  0.0625 0.0625 0  0.09375 0.0625 0  0.125 0.0625 0  0.15625 0.0625 0  0.1875 0.0625 0  0.21875 0.0625 0  0.25 0.0625 0  0.28125 0.0625 0  0.3125 0.0625 0  0.34375 0.0625 0  0.375 0.0625 0  0.40625 0.0625 0  0.4375 0.0625 0  0.46875 0.0625 0  0.5 0.0625 0  0.53125 0.0625 0  0.5625 0.0625 0  0.59375 0.0625 0  0.625 0.0625 0  0.65625 0.0625 0  0.6875 0.0625 0  0.71875 0.0625 0  0.75 0.0625 0  0.78125 0.0625 0  0.8125 0.0625 0  0.84375 0.0625 0  0.875 0.0625 0  0.90625 0.0625 0  0.9375 0.0625 0  0.96875 0.0625 0  1 0.0625 0  1.03125 0.0625 0  1.0625 0.0625 0  1.09375 0.0625 0  1.125 0.0625 0  1.15625 0.0625 0  1.1875 0.0625 0  1.21875 0.0625 0  1.25 0.0625 0  1.28125 0.0625 0  1.3125 0.0625 0  1.34375 0.0625 0  1.375 0.0625 0  1.40625 0.0625 0  1.4375 0.0625 0  1.46875 0.0625 0  1.5 0.0625 0  0 0.09375 0  0.03125 0.09375 0  0.0625 0.09375 0  0.09375 0.09375 0  0.125 0.09375 0  0.15625 0.09375 0  0.1875 0.09375 0  0.21875 0.09375 0  0.25 0.09375 0  0.28125 0.09375 0  0.3125 0.09375 0  0.34375 0.09375 0  0.375 0.09375 0  0.40625 0.09375 0  0.4375 0.09375 0  0.46875 0.09375 0  0.5 0.09375 0  0.53125 0.09375 0  0.5625 0.09375 0  0.59375 0.09375 0  0.625 0.09375 0  0.65625 0.09375 0  0.6875 0.09375 0  0.71875 0.09375 0  0.75 0.09375 0  0.78125 0.09375 0  0.8125 0.09375 0  0.84375 0.09375 0  0.875 0.09375 0  0.90625 0.09375 0  0.9375 0.09375 0  0.96875 0.09375 0  1 0.09375 0  1.03125 0.09375 0  1.0625 0.09375 0  1.09375 0.09375 0  1.125 0.09375 0  1.15625 0.09375 0  1.1875 0.09375 0  1.21875 0.09375 0  1.25 0.09375 0  1.28125 0.09375 0  1.3125 0.09375 0  1.34375 0.09375 0  1.375 0.09375 0  1.40625 0.09375 0  1.4375 0.09375 0  1.46875 0.09375 0  1.5 0.09375 0  0 0.125 0  0.03125 0.125 0  0.0625 0.125 0  0.09375 0.125 0  0.125 0.125 0  0.15625 0.125 0  0.1875 0.125 0  0.21875 0.125 0  0.25 0.125 0  0.28125 0.125 0  0.3125 0.125 0  0.34375 0.125 0  0.375 0.125 0  0.40625 0.125 0  0.4375 0.125 0  0.46875 0.125 0  0.5 0.125 0  0.53125 0.125 0  0.5625 0.125 0  0.59375 0.125 0  0.625 0.125 0  0.65625 0.125 0  0.6875 0.125 0  0.71875 0.125 0  0.75 0.125 0  0.78125 0.125 0  0.8125 0.125 0  0.84375 0.125 0  0.875 0.125 0  0.90625 0.125 0  0.9375 0.125 0  0.96875 0.125 0  1 0.125 0  1.03125 0.125 0  1.0625 0.125 0  1.09375 0.125 0  1.125 0.125 0  1.15625 0.125 0  1.1875 0.125 0  1.21875 0.125 0  1.25 0.125 0  1.28125 0.125 0  1.3125 0.125 0  1.34375 0.125 0  1.375 0.125 0  1.40625 0.125 0  1.4375 0.125 0  1.46875 0.125 0  1.5 0.125 0  0 0.15625 0  0.03125 0.15625 0  0.0625 0.15625 0  0.09375 0.15625 0  0.125 0.15625 0  0.15625 0.15625 0  0.1875 0.15625 0  0.21875 0.15625 0  0.25 0.15625 0  0.28125 0.15625 0  0.3125 0.15625 0  0.34375 0.15625 0  0.375 0.15625 0  0.40625 0.15625 0  0.4375 0.15625 0  0.46875 0.15625 0  0.5 0.15625 0  0.53125 0.15625 0  0.5625 0.15625 0  0.59375 0.15625 0  0.625 0.15625 0  0.65625 0.15625 0  0.6875 0.15625 0  0.71875 0.15625 0  0.75 0.15625 0  0.78125 0.15625 0  0.8125 0.15625 0  0.84375 0.15625 0  0.875 0.15625 0  0.90625 0.15625 0  0.9375 0.15625 0  0.96875 0.15625 0  1 0.15625 0  1.03125 0.15625 0  1.0625 0.15625 0  1.09375 0.15625 0  1.125 0.15625 0  1.15625 0.15625 0  1.1875 0.15625 0  1.21875 0.15625 0  1.25 0.15625 0  1.28125 0.15625 0  1.3125 0.15625 0  1.34375 0.15625 0  1.375 0.15625 0  1.40625 0.15625 0  1.4375 0.15625 0  1.46875 0.15625 0  1.5 0.15625 0  0 0.1875 0  0.03125 0.1875 0  0.0625 0.1875 0  0.09375 0.1875 0  0.125 0.1875 0  0.15625 0.1875 0  0.1875 0.1875 0  0.21875 0.1875 0  0.25 0.1875 0  0.28125 0.1875 0  0.3125 0.1875 0  0.34375 0.1875 0  0.375 0.1875 0  0.40625 0.1875 0  0.4375 0.1875 0  0.46875 0.1875 0  0.5 0.1875 0  0.53125 0.1875 0  0.5625 0.1875 0  0.59375 0.1875 0  0.625 0.1875 0  0.65625 0.1875 0  0.6875 0.1875 0  0.71875 0.1875 0  0.75 0.1875 0  0.78125 0.1875 0  0.8125 0.1875 0  0.84375 0.1875 0  0.875 0.1875 0  0.90625 0.1875 0  0.9375 0.1875 0  0.96875 0.1875 0  1 0.1875 0  1.03125 0.1875 0  1.0625 0.1875 0  1.09375 0.1875 0  1.125 0.1875 0  1.15625 0.1875 0  1.1875 0.1875 0  1.21875 0.1875 0  1.25 0.1875 0  1.28125 0.1875 0  1.3125 0.1875 0  1.34375 0.1875 0  1.375 0.1875 0  1.40625 0.1875 0  1.4375 0.1875 0  1.46875 0.1875 0  1.5 0.1875 0  0 0.21875 0  0.03125 0.21875 0  0.0625 0.21875 0  0.09375 0.21875 0  0.125 0.21875 0  0.15625 0.21875 0  0.1875 0.21875 0  0.21875 0.21875 0  0.25 0.21875 0  0.28125 0.21875 0  0.3125 0.21875 0  0.34375 0.21875 0  0.375 0.21875 0  0.40625 0.21875 0  0.4375 0.21875 0  0.46875 0.21875 0  0.5 0.21875 0  0.53125 0.21875 0  0.5625 0.21875 0  0.59375 0.21875 0  0.625 0.21875 0  0.65625 0.21875 0  0.6875 0.21875 0  0.71875 0.21875 0  0.75 0.21875 0  0.78125 0.21875 0  0.8125 0.21875 0  0.84375 0.21875 0  0.875 0.21875 0  0.90625 0.21875 0  0.9375 0.21875 0  0.96875 0.21875 0  1 0.21875 0  1.03125 0.21875 0  1.0625 0.21875 0  1.09375 0.21875 0  1.125 0.21875 0  1.15625 0.21875 0  1.1875 0.21875 0  1.21875 0.21875 0  1.25 0.21875 0  1.28125 0.21875 0  1.3125 0.21875 0  1.34375 0.21875 0  1.375 0.21875 0  1.40625 0.21875 0  1.4375 0.21875 0  1.46875 0.21875 0  1.5 0.21875 0  0 0.25 0  0.03125 0.25 0  0.0625 0.25 0  0.09375 0.25 0  0.125 0.25 0  0.15625 0.25 0  0.1875 0.25 0  0.21875 0.25 0  0.25 0.25 0  0.28125 0.25 0  0.3125 0.25 0  0.34375 0.25 0  0.375 0.25 0  0.40625 0.25 0  0.4375 0.25 0  0.46875 0.25 0  0.5 0.25 0  0.53125 0.25 0  0.5625 0.25 0  0.59375 0.25 0  0.625 0.25 0  0.65625 0.25 0  0.6875 0.25 0  0.71875 0.25 0  0.75 0.25 0  0.78125 0.25 0  0.8125 0.25 0  0.84375 0.25 0  0.875 0.25 0  0.90625 0.25 0  0.9375 0.25 0  0.96875 0.25 0  1 0.25 0  1.03125 0.25 0  1.0625 0.25 0  1.09375 0.25 0  1.125 0.25 0  1.15625 0.25 0  1.1875 0.25 0  1.21875 0.25 0  1.25 0.25 0  1.28125 0.25 0  1.3125 0.25 0  1.34375 0.25 0  1.375 0.25 0  1.40625 0.25 0  1.4375 0.25 0  1.46875 0.25 0  1.5 0.25 0  0 0.28125 0  0.03125 0.28125 0  0.0625 0.28125 0  0.09375 0.28125 0  0.125 0.28125 0  0.15625 0.28125 0  0.1875 0.28125 0  0.21875 0.28125 0  0.25 0.28125 0  0.28125 0.28125 0  0.3125 0.28125 0  0.34375 0.28125 0  0.375 0.28125 0  0.40625 0.28125 0  0.4375 0.28125 0  0.46875 0.28125 0  0.5 0.28125 0  0.53125 0.28125 0  0.5625 0.28125 0  0.59375 0.28125 0  0.625 0.28125 0  0.65625 0.28125 0  0.6875 0.28125 0  0.71875 0.28125 0  0.75 0.28125 0  0.78125 0.28125 0  0.8125 0.28125 0  0.84375 0.28125 0  0.875 0.28125 0  0.90625 0.28125 0  0.9375 0.28125 0  0.96875 0.28125 0  1 0.28125 0  1.03125 0.28125 0  1.0625 0.28125 0  1.09375 0.28125 0  1.125 0.28125 0  1.15625 0.28125 0  1.1875 0.28125 0  1.21875 0.28125 0  1.25 0.28125 0  1.28125 0.28125 0  1.3125 0.28125 0  1.34375 0.28125 0  1.375 0.28125 0  1.40625 0.28125 0  1.4375 0.28125 0  1.46875 0.28125 0  1.5 0.28125 0  0 0.3125 0  0.03125 0.3125 0  0.0625 0.3125 0  0.09375 0.3125 0  0.125 0.3125 0  0.15625 0.3125 0  0.1875 0.3125 0  0.21875 0.3125 0  0.25 0.3125 0  0.28125 0.3125 0  0.3125 0.3125 0  0.34375 0.3125 0  0.375 0.3125 0  0.40625 0.3125 0  0.4375 0.3125 0  0.46875 0.3125 0  0.5 0.3125 0  0.53125 0.3125 0  0.5625 0.3125 0  0.59375 0.3125 0  0.625 0.3125 0  0.65625 0.3125 0  0.6875 0.3125 0  0.71875 0.3125 0  0.75 0.3125 0  0.78125 0.3125 0  0.8125 0.3125 0  0.84375 0.3125 0  0.875 0.3125 0  0.90625 0.3125 0  0.9375 0.3125 0  0.96875 0.3125 0  1 0.3125 0  1.03125 0.3125 0  1.0625 0.3125 0  1.09375 0.3125 0  1.125 0.3125 0  1.15625 0.3125 0  1.1875 0.3125 0  1.21875 0.3125 0  1.25 0.3125 0  1.28125 0.3125 0  1.3125 0.3125 0  1.34375 0.3125 0  1.375 0.3125 0  1.40625 0.3125 0  1.4375 0.3125 0  1.46875 0.3125 0  1.5 0.3125 0  0 0.34375 0  0.03125 0.34375 0  0.0625 0.34375 0  0.09375 0.34375 0  0.125 0.34375 0  0.15625 0.34375 0  0.1875 0.34375 0  0.21875 0.34375 0  0.25 0.34375 0  0.28125 0.34375 0  0.3125 0.34375 0  0.34375 0.34375 0  0.375 0.34375 0  0.40625 0.34375 0  0.4375 0.34375 0  0.46875 0.34375 0  0.5 0.34375 0  0.53125 0.34375 0  0.5625 0.34375 0  0.59375 0.34375 0  0.625 0.34375 0  0.65625 0.34375 0  0.6875 0.34375 0  0.71875 0.34375 0  0.75 0.34375 0  0.78125 0.34375 0  0.8125 0.34375 0  0.84375 0.34375 0  0.875 0.34375 0  0.90625 0.34375 0  0.9375 0.34375 0  0.96875 0.34375 0  1 0.34375 0  1.03125 0.34375 0  1.0625 0.34375 0  1.09375 0.34375 0  1.125 0.34375 0  1.15625 0.34375 0  1.1875 0.34375 0  1.21875 0.34375 0  1.25 0.34375 0  1.28125 0.34375 0  1.3125 0.34375 0  1.34375 0.34375 0  1.375 0.34375 0  1
[...]
<PointData  Vectors="f_17"> 
<DataArray  type="Float64"  Name="f_17"  NumberOfComponents="3" format="ascii">0.0000000000000000e+00 0.0000000000000000e+00 0.0000000000000000e+00  0.0000000000000000e+00 0.0000000000000000e+00 0.0000000000000000e+00  0.0000000000000000e+00 0.0000000000000000e+00 0.0000000000000000e+00  0.0000000000000000e+00 0.0000000000000000e+00 0.0000000000000000e+00  0.0000000000000000e+00 0.0000000000000000e+00 0.0000000000000000e+00  0.0000000000000000e+00 0.0000000000000000e+00 0.0000000000000000e+00  0.0000000000000000e+00 0.0000000000000000e+00 0.0000000000000000e+00  0.0000000000000000e+00 0.0000000000000000e+00 0.0000000000000000e+00  0.0000000000000000e+00 0.0000000000000000e+00 0.0000000000000000e+00  0.0000000000000000e+00 0.0000000000000000e+00 0.0000000000000000e+00  0.0000000000000000e+00 0.0000000000000000e+00 0.0000000000000000e+00  0.0000000000000000e+00 0.0000000000000000e+00 0.0000000000000000e+00  0.0000000000000000e+00 0.0000000000000000e+00 0.0000000000000000e+00  0.0000000000000000e+00 0.0000000000000000e+00 0.0000000000000000e+00  0.0000000000000000e+00 0.0000000000000000e+00 0.0000000000000000e+00  0.0000000000000000e+00 0.0000000000000000e+00 0.0000000000000000e+00  0.0000000000000000e+00 0.0000000000000000e+00 0.0000000000000000e+00  0.0000000000000000e+00 0.0000000000000000e+00 0.0000000000000000e+00  0.0000000000000000e+00 0.0000000000000000e+00 0.0000000000000000e+00  0.0000000000000000e+00 0.0000000000000000e+00 0.0000000000000000e+00  0.0000000000000000e+00 0.0000000000000000e+00 0.0000000000000000e+00  0.0000000000000000e+00 0.0000000000000000e+00 0.0000000000000000e+00  0.0000000000000000e+00 0.0000000000000000e+00 0.0000000000000000e+00  0.0000000000000000e+00 0.0000000000000000e+00 0.0000000000000000e+00  0.0000000000000000e+00 0.0000000000000000e+00 0.0000000000000000e+00  0.0000000000000000e+00 0.0000000000000000e+00 0.0000000000000000e+00  0.0000000000000000e+00 0.0000000000000000e+00 0.0000000000000000e+00  0.0000000000000000e+00 0.0000000000000000e+00 0.0000000000000000e+00  0.0000000000000000e+00 0.0000000000000000e+00 0.0000000000000000e+00  0.0000000000000000e+00 0.0000000000000000e+00 0.0000000000000000e+00  0.0000000000000000e+00 0.0000000000000000e+00 0.0000000000000000e+00  0.0000000000000000e+00 0.0000000000000000e+00 0.0000000000000000e+00  0.0000000000000000e+00 0.0000000000000000e+00 0.0000000000000000e+00  0.0000000000000000e+00 0.0000000000000000e+00 0.0000000000000000e+00  0.0000000000000000e+00 0.0000000000000000e+00 0.0000000000000000e+00  0.0000000000000000e+00 0.0000000000000000e+00 0.0000000000000000e+00  0.0000000000000000e+00 0.0000000000000000e+00 0.0000000000000000e+00  0.0000000000000000e+00 0.0000000000000000e+00 0.0000000000000000e+00  0.0000000000000000e+00 0.0000000000000000e+00 0.0000000000000000e+00  0.0000000000000000e+00 0.0000000000000000e+00 0.0000000000000000e+00  0.0000000000000000e+00 0.0000000000000000e+00 0.0000000000000000e+00  0.0000000000000000e+00 0.0000000000000000e+00 0.0000000000000000e+00  0.0000000000000000e+00 0.0000000000000000e+00 0.0000000000000000e+00  0.0000000000000000e+00 0.0000000000000000e+00 0.0000000000000000e+00  0.0000000000000000e+00 0.0000000000000000e+00 0.0000000000000000e+00  0.0000000000000000e+00 0.0000000000000000e+00 0.0000000000000000e+00  0.0000000000000000e+00 0.0000000000000000e+00 0.0000000000000000e+00  0.0000000000000000e+00 0.0000000000000000e+00 0.0000000000000000e+00  0.0000000000000000e+00 0.0000000000000000e+00 0.0000000000000000e+00  0.0000000000000000e+00 0.0000000000000000e+00 0.0000000000000000e+00  1.5074435376262704e-07 3.0493640230709361e-08 0.0000000000000000e+00  -9.4010623347216397e-08 1.0050671333463899e-07 0.0000000000000000e+00  -7.3808063198527514e-08 -3.5108901697815301e-08 0.0000000000000000e+00  -2.8052821556144485e-07 -7.6963836648247008e-08 0.0000000000000000e+00  -2.6201781862595437e-07 -1.0374415208374398e-07 0.0000000000000000e+00  -2.4184474150997180e-07 -1.0617831993662526e-07 0.0000000000000000e+00  -2.2431104582789199e-07 -9.6069505110700923e-08 0.0000000000000000e+00  -1.9619865824418255e-07 -8.3709904484883040e-08 0.0000000000000000e+00  -1.7003161785354667e-07 -7.0781684768768754e-08 0.0000000000000000e+00  -1.4615372504176170e-07 -5.8455208395221341e-08 0.0000000000000000e+00  -1.2576597092701998e-07 -4.7062324149375675e-08 0.0000000000000000e+00  -1.0992809643289050e-07 -3.6571937572166661e-08 0.0000000000000000e+00  -9.8900424068107611e-08 -2.6910169299484180e-08 0.0000000000000000e+00  -9.2869529822686953e-08 -1.7965192558406491e-08 0.0000000000000000e+00  -9.1911163876817502e-08 -9.6165985533704248e-09 0.0000000000000000e+00  -9.6048330178993593e-08 -1.7540149721425848e-09 0.0000000000000000e+00  -1.0528863980014724e-07 5.7029050823190485e-09 0.0000000000000000e+00  -1.1960948918966783e-07 1.2778306981109937e-08 0.0000000000000000e+00  -1.3892123945025402e-07 1.9414042927405026e-08 0.0000000000000000e+00  -1.6300451969059406e-07 2.5452827143796466e-08 0.0000000000000000e+00  -1.9143389479889152e-07 3.0640498286222857e-08 0.0000000000000000e+00  -2.2350944605492688e-07 3.4653761069733774e-08 0.0000000000000000e+00  -2.5821674064718185e-07 3.7151834361665176e-08 0.0000000000000000e+00  -2.9423949631316665e-07 3.7841043838973096e-08 0.0000000000000000e+00  -3.3002158347781331e-07 3.6535084315439069e-08 0.0000000000000000e+00  -3.6389002533028747e-07 3.3192840378422802e-08 0.0000000000000000e+00  -3.9417166048957332e-07 2.7925354521759296e-08 0.0000000000000000e+00  -4.1936308527975167e-07 2.0966902168846602e-08 0.0000000000000000e+00  -4.3814292598623207e-07 1.2634159771073848e-08 0.0000000000000000e+00  -4.4959513137671475e-07 3.2543616120792664e-09 0.0000000000000000e+00  -4.5285073401786027e-07 -6.8422293744809988e-09 0.0000000000000000e+00  -4.4780130178924013e-07 -1.7447879263055031e-08 0.0000000000000000e+00  -4.3349475554819325e-07 -2.8275808913220128e-08 0.0000000000000000e+00  -4.1128643278937870e-07 -3.9445112672686048e-08 0.0000000000000000e+00  -3.7813236833261753e-07 -5.0366563727672333e-08 0.0000000000000000e+00  -3.4029386498927495e-07 -6.2166366254477371e-08 0.0000000000000000e+00  -2.8492395913884421e-07 -7.2230190417026448e-08 0.0000000000000000e+00  -2.3847857895481273e-07 -8.6035664234648391e-08 0.0000000000000000e+00  -1.4685778673099186e-07 -9.1180716768684362e-08 0.0000000000000000e+00  -1.2054373701823005e-07 -1.1304818015439711e-07 0.0000000000000000e+00  6.3610087121712636e-08 -9.5090477344703178e-08 0.0000000000000000e+00  -4.6468779778445503e-08 -1.5110461217162454e-07 0.0000000000000000e+00  4.4529047994231349e-07 -3.5108606174659921e-08 0.0000000000000000e+00  -2.7583188650759473e-07 -2.3991974842728437e-07 0.0000000000000000e+00  1.2326805954077080e-06 2.3682591954071211e-07 0.0000000000000000e+00  -2.4208798935542215e-06 -7.3543604874531878e-07 0.0000000000000000e+00  2.6330246996950671e-06 1.3898817610527408e-06 0.0000000000000000e+00  0.0000000000000000e+00 0.0000000000000000e+00 0.0000000000000000e+00  0.0000000000000000e+00 0.0000000000000000e+00 0.0000000000000000e+00  -1.1376732428922173e-06 7.1220289558318372e-07 0.0000000000000000e+00  8.4686335870257683e-07 -2.2436130995357206e-08 0.0000000000000000e+00  -9.9788999098131272e-08 8.5562440920965930e-08 0.0000000000000000e+00  -2.9359214738517572e-07 -4.7160511670631276e-08 0.0000000000000000e+00  -3.0383925832049938e-07 -1.0338352790244104e-07 0.0000000000000000e+00  -3.5356609370063365e-07 -1.2492766305567983e-07 0.0000000000000000e+00  -3.4242423826754630e-07 -1.2757035300749252e-07 0.0000000000000000e+00  -3.2054758360112172e-07 -1.2040670967804477e-07 0.0000000000000000e+00  -2.9476392280839148e-07 -1.0813855083243678e-07 0.0000000000000000e+00  -2.6685276962216775e-07 -9.3602499095115093e-08 0.0000000000000000e+00  -2.4154620134900852e-07 -7.8132943074578069e-08 0.0000000000000000e+00  -2.1999571723307630e-07 -6.2456065417423671e-08 0.0000000000000000e+00  -2.0303064346727093e-07 -4.6960626329768177e-08 0.0000000000000000e+00  -1.9113016630006196e-07 -3.1821958401923697e-08 0.0000000000000000e+00  -1.8446673907262335e-07 -1.7093056821997017e-08 0.0000000000000000e+00  -1.8311873681391460e-07 -2.7658573060014941e-09 0.0000000000000000e+00  -1.8709570343446226e-07 1.1170170379256856e-08 0.0000000000000000e+00  -1.9635529128490531e-07 2.4662119132183228e-08 0.0000000000000000e+00  -2.1077984994607372e-07 3.7528352631156373e-08 0.0000000000000000e+00  -2.3011345429574444e-07 4.9410318851334425e-08 0.0000000000000000e+00  -2.5387712867890348e-07 5.9762579214019562e-08 0.0000000000000000e+00  -2.8128717403881006e-07 6.7897463592280749e-08 0.0000000000000000e+00  -3.1120625688441660e-07 7.3084542831248623e-08 0.0000000000000000e+00  -3.4216136741988903e-07 7.4683753034717313e-08 0.0000000000000000e+00  -3.7242724050524769e-07 7.2274821547152688e-08 0.0000000000000000e+00  -4.0018572848561389e-07 6.5742656304892598e-08 0.0000000000000000e+00  -4.2367623745590220e-07 5.5296037138642998e-08 0.0000000000000000e+00  -4.4139591925760050e-07 4.1413013671031640e-08 0.0000000000000000e+00  -4.5210861764318918e-07 2.4749397427486083e-08 0.0000000000000000e+00  -4.5507319226701395e-07 6.0071304795748823e-09 0.0000000000000000e+00  -4.4962833175865847e-07 -1.4122642767917340e-08 0.0000000000000000e+00  -4.3594055639311760e-07 -3.5118038177814572e-08 0.0000000000000000e+00  -4.1327271212739723e-07 -5.6434936888618316e-08 0.0000000000000000e+00  -3.8332440492080227e-07 -7.7975409596586649e-08 0.0000000000000000e+00  -3.4319374716230308e-07 -9.8978998036683457e-08 0.0000000000000000e+00  -2.9968915295710091e-07 -1.2031531557005000e-07 0.0000000000000000e+00  -2.4000514054115986e-07 -1.3925645462372176e-07 0.0000000000000000e+00  -1.9167774574243277e-07 -1.6052646127089116e-07 0.0000000000000000e+00  -1.0073133718007617e-07 -1.7209510943933125e-07 0.0000000000000000e+00  -7.9414439653183703e-08 -1.9629311108482275e-07 0.0000000000000000e+00  9.3626487761721391e-08 -1.8059331069793317e-07 0.0000000000000000e+00  -3.3988620979533456e-08 -2.2612221358179765e-07 0.0000000000000000e+00  4.2137114367663150e-07 -1.1149144419538060e-07 0.0000000000000000e+00  -3.3409162820251523e-07 -2.7847785532799105e-07 0.0000000000000000e+00  1.0395495490019495e-06 1.6786670231939347e-07 0.0000000000000000e+00  -2.4739417547226459e-06 -5.7676798786689317e-07 0.0000000000000000e+00  2.5318405083401498e-06 1.4570985354091723e-06 0.0000000000000000e+00  0.0000000000000000e+00 0.0000000000000000e+00 0.0000000000000000e+00  0.0000000000000000e+00 0.0000000000000000e+00 0.0000000000000000e+00  -2.1791513955136385e-06 1.1808580870612546e-06 0.0000000000000000e+00  1.8214086766471276e-06 -1.1560034409776223e-07 0.0000000000000000e+00  -3.3608033136611068e-07 2.4917733099614401e-07 0.0000000000000000e+00  1.3080809462763175e-08 -2.4315761802454335e-08 0.0000000000000000e+00  -1.3020910511180335e-07 -6.3454900285190424e-08 0.0000000000000000e+00  -1.8572999577497571e-07 -1.1729316264519332e-07 0.0000000000000000e+00  -1.9698460902256874e-07 -1.3435858703512376e-07 0.0000000000000000e+00  -2.1638117852305594e-07 -1.3566122653770002e-07 0.0000000000000000e+00  -2.1962152812393446e-07 -1.2696556288828986e-07 0.0000000000000000e+00  -2.1787893449203552e-07 -1.1256843724336439e-07 0.0000000000000000e+00  -2.1380694250146410e-07 -9.5192443776896808e-08 0.0000000000000000e+00  -2.0872324572463817e-07 -7.6397723488377474e-08 0.0000000000000000e+00  -2.0443289099280527e-07 -5.7112045229439904e-08 0.0000000000000000e+00  -2.0179129845715422e-07 -3.7841479289176603e-08 0.0000000000000000e+00  -2.0142515969528293e-07 -1.8828660757041808e-08 0.0000000000000000e+00  -2.0376960573253802e-07 -1.5969813585051558e-10 0.0000000000000000e+00  -2.0911865704982820e-07 1.8136596684556549e-08 0.0000000000000000e+00  -2.1768650053318328e-07 3.5979208404751776e-08 0.0000000000000000e+00  -2.2959495079854729e-07 5.3123261262064343e-08 0.0000000000000000e+00  -2.4481996779072186e-07 6.9068862746716450e-08 0.0000000000000000e+00  -2.6310024963591403e-07 8.3027759114129398e-08 0.0000000000000000e+00  -2.8384011574287762e-07 9.3980248688759969e-08 0.0000000000000000e+00  -3.0604995549573732e-07 1.0082825361210485e-07 0.0000000000000000e+00  -3.2837251000870133e-07 1.0261086419089195e-07 0.0000000000000000e+00  -3.4919895319773184e-07 9.8716535748812691e-08 0.0000000000000000e+00  -3.6687877025429565e-07 8.9020177665148443e-08 0.0000000000000000e+00  -3.7991586024959837e-07 7.3904319137402353e-08 0.0000000000000000e+00  -3.8719593511875174e-07 5.4160190471760338e-08 0.0000000000000000e+00  -3.8798167399833123e-07 3.0826191050162011e-08 0.0000000000000000e+00  -3.8211712193744241e-07 4.9844188513368915e-09 0.0000000000000000e+00  -3.6954416840062810e-07 -2.2345527539549514e-08 0.0000000000000000e+00  -3.5105173513367589e-07 -5.0391261630187667e-08 0.0000000000000000e+00  -3.2644108715697577e-07 -7.8424461337554044e-08 0.0000000000000000e+00  -2.9801275994369006e-07 -1.0621672450520871e-07 0.0000000000000000e+00  -2.6326899623287573e-07 -1.3287735869439328e-07 0.0000000000000000e+00  -2.2974496688098415e-07 -1.5912338624278663e-07 0.0000000000000000e+00  -1.8485889476592095e-07 -1.8202119694695346e-07 0.0000000000000000e+00  -1.5731056431909502e-07 -2.0587379471026087e-07 0.0000000000000000e+00  -9.3056448773735170e-08 -2.1853792594118065e-07 0.0000000000000000e+00  -1.0584692559166106e-07 -2.4090679720317978e-07 0.0000000000000000e+00  2.5110795260356249e-08 -2.2279205536532866e-07 0.0000000000000000e+00  -1.4929373172754211e-07 -2.5898336809014458e-07 0.0000000000000000e+00  2.4270832091403942e-07 -1.4739693268069357e-07 0.0000000000000000e+00  -5.5159320083156829e-07 -2.9267501443540047e-07 0.0000000000000000e+00  7.3270114231218448e-07 1.0387729641751327e-07 0.0000000000000000e+00  -2.7021803564907040e-06 -5.2834392330643256e-07 0.0000000000000000e+00  2.1409466992035884e-06 1.2436474372819212e-06 0.0000000000000000e+00  0.0000000000000000e+00 0.0000000000000000e+00 0.0000000000000000e+00  0.0000000000000000e+00 0.0000000000000000e+00 0.0000000000000000e+00  -2.4296242758253947e-06 1.2188205185481465e-06 0.0000000000000000e+00  2.4382289033205424e-06 -1.4717300082731769e-07 0.0000000000000000e+00  -6.2755648818659348e-07 3.3155167460740898e-07 0.0000000000000000e+00  2.9196822028977721e-07 -9.7184146194078388e-09 0.0000000000000000e+00  -1.3374493813956032e-07 7.0880667993227667e-09 0.0000000000000000e+00  -7.9200550764534272e-08 -8.0840925869283889e-08 0.0000000000000000e+00  -1.2455444618940726e-07 -1.0339975901341817e-07 0.0000000000000000e+00  -1.5543902474640887e-07 -1.1854507504680807e-07 0.0000000000000000e+00  -1.7001911246946962e-07 -1.1804399044432816e-07 0.0000000000000000e+00  -1.8319979107034758e-07 -1.0926807461491521e-07 0.0000000000000000e+00  -1.9068669149069303e-07 -9.4991252202993664e-08 0.0000000000000000e+00  -1.9566436102153352e-07 -7.7426660369511155e-08 0.0000000000000000e+00  -1.9945687528348783e-07 -5.8067173031119228e-08 0.0000000000000000e+00  -2.0288263262499223e-07 -3.7820711585199766e-08 0.0000000000000000e+00  -2.0674012548048758e-07 -1.7227354354372558e-08 0.0000000000000000e+00  -2.1153749143440292e-07 3.4449211225204886e-09 0.0000000000000000e+00  -2.1768660082570507e-07 2.4065975380975227e-08 0.0000000000000000e+00  -2.2553767208644683e-07 4.4495119341206382e-08 0.0000000000000000e+00  -2.3537771423368985e-07 6.4413274436898625e-08 0.0000000000000000e+00  -2.4737560830219948e-07 8.3169151943519318e-08 0.0000000000000000e+00  -2.6146121597334570e-07 9.9702574828736049e-08 0.0000000000000000e+00  -2.7718635377047484e-07 1.1260651515695747e-07 0.0000000000000000e+00  -2.9363111525830136e-07 1.2034908490762212e-07 0.0000000000000000e+00  -3.0943264163146050e-07 1.2160460363111914e-07 0.0000000000000000e+00  -3.2295137197143886e-07 1.1558104431112470e-07 0.0000000000000000e+00  -3.3256700392603015e-07 1.0222060295154688e-07 0.0000000000000000e+00  -3.3695190762081506e-07 8.2206236307919397e-08 0.0000000000000000e+00  -3.3534311686714343e-07 5.6781953098221987e-08 0.0000000000000000e+00  -3.2750635725569460e-07 2.7482673750335124e-08 0.0000000000000000e+00  -3.1390045632602217e-07 -4.1635464147185708e-09 0.0000000000000000e+00  -2.9506873117658277e-07 -3.6795952196018537e-08 0.0000000000000000e+00  -2.7241248454732823e-07 -6.9413503489519755e-08 0.0000000000000000e+00  -2.4614296434371407e-07 -1.0114859246205761e-07 0.0000000000000000e+00  -2.1909578810564040e-07 -1.3166980423607699e-07 0.0000000000000000e+00  -1.8879136913065489e-07 -1.6000014338638574e-07 0.0000000000000000e+00  -1.6351715820953248e-07 -1.8667393243955995e-07 0.0000000000000000e+00  -1.2983508111426917e-07 -2.0865635510149001e-07 0.0000000000000000e+00  -1.1835295592605154e-07 -2.2973225456584207e-07 0.0000000000000000e+00  -7.1479633695023588e-08 -2.3814352097789570e-07 0.0000000000000000e+00  -1.0876008460669433e-07 -2.5320356940676745e-07 0.0000000000000000e+00  2.6536244596910131e-09 -2.2863455080443541e-07 0.0000000000000000e+00  -2.0386549682968159e-07 -2.5266290720112061e-07 0.0000000000000000e+00  1.7929223177025662e-07 -1.4375033056475790e-07 0.0000000000000000e+00  -6.4763878441877111e-07 -2.7062965573305535e-07 0.0000000000000000e+00  6.6264342105079993e-07 7.9852531483049271e-08 0.0000000000000000e+00  -2.7666947257692685e-06 -4.7699854379686653e-07 0.0000000000000000e+00  2.1208165069789385e-06 1.0832080320833656e-06 0.0000000000000000e+00  0.0000000000000000e+00 0.0000000000000000e+00 0.0000000000000000e+00  0.0000000000000000e+00 0.0000000000000000e+00 0.0000000000000000e+00  -2.3785974279631028e-06 1.1061737464209023e-06 0.0000000000000000e+00  2.6843314650376751e-06 -1.3314907890190921e-07 0.0000000000000000e+00  -7.6397688250653312e-07 3.3361102944692080e-07 0.0000000000000000e+00  5.0869859132798521e-07 4.7801088560386182e-09 0.0000000000000000e+00  -1.7360606139140104e-07 6.2492911616280192e-08 0.0000000000000000e+00  4.0653569553613812e-08 -4.5512334361799183e-08 0.0000000000000000e+00  -7.0787355040355126e-08 -6.3152004039339079e-08 0.0000000000000000e+00  -8.3377258693720502e-08 -9.1088131713994551e-08 0.0000000000000000e+00  -1.1057594119868293e-07 -9.6427519184471769e-08 0.0000000000000000e+00  -1.3337159824268175e-07 -9.4064193414194558e-08 0.0000000000000000e+00  -1.4974577316224534e-07 -8.3901936231502375e-08 0.0000000000000000e+00  -1.6383129639473439e-07 -6.9098299738950802e-08 0.0000000000000000e+00  -1.7520706625963997e-07 -5.1310900783763434e-08 0.0000000000000000e+00  -1.8496685817334652e-07 -3.1771826077046089e-08 0.0000000000000000e+00  -1.9377228098763796e-07 -1.1270244812371425e-08 0.0000000000000000e+00  -2.0210754883507358e-07 9.7745724130774269e-09 0.0000000000000000e+00  -2.1044259140696926e-07 3.1161387523700127e-08 0.0000000000000000e+00  -2.1921348614825235e-07 5.2740454442442141e-08 0.0000000000000000e+00  -2.2886121361449949e-07 7.4178049610588752e-08 0.0000000000000000e+00  -2.3975837918794393e-07 9.4713526728287714e-08 0.0000000000000000e+00  -2.5204049094829172e-07 1.1300467001178388e-07 0.0000000000000000e+00  -2.6539121378270194e-07 1.2718056509056303e-07 0.0000000000000000e+00  -2.7888233537356384e-07 1.3516046685099198e-07 0.0000000000000000e+00  -2.9099972996880460e-07 1.3516380208831348e-07 0.0000000000000000e+00  -2.9989429843954207e-07 1.2621577580195465e-07 0.0000000000000000e+00  -3.0382387712655282e-07 1.0843350864181766e-07 0.0000000000000000e+00  -3.0155619005720617e-07 8.2986073495991934e-08 0.0000000000000000e+00  -2.9269714091995419e-07 5.1768117044163323e-08 0.0000000000000000e+00  -2.7759685372251314e-07 1.6957542418108110e-08 0.0000000000000000e+00  -2.5741767606488010e-07 -1.9412341607638982e-08 0.0000000000000000e+00  -2.3336495800030285e-07 -5.5666641275387331e-08 0.0000000000000000e+00  -2.0743880607603631e-07 -9.0666772802308331e-08 0.0000000000000000e+00  -1.8021061500961748e-07 -1.2352646365089959e-07 0.0000000000000000e+00  -1.5488543152000573e-07 -1.539438200