<?xml version="1.0"?>
<VTKFile type="UnstructuredGrid"  version="0.1"  >
<UnstructuredGrid>
<Piece  NumberOfPoints="1617" NumberOfCells="3072">
<Points>
<DataArray  type="Float64"  NumberOfComponents="3"  format="ascii">0 0 0  0.03125 0 0  0.0625 0 0  0.09375 0 0  0.125 0 0  0.15625 0 0  0.1875 0 0  0.21875 0 0  0.25 0 0  0.28125 0 0  0.3125 0 0  0.34375 0 0  0.375 0 0  0.40625 0 0  0.4375 0 0  0.46875 0 0  0.5 0 0  0.53125 0 0  0.5625 0 0  0.59375 0 0  0.625 0 0  0.65625 0 0  0.6875 0 0  0.71875 0 0  0.75 0 0  0.78125 0 0  0.8125 0 0  0.84375 0 0  0.875 0 0  0.90625 0 0  0.9375 0 0  0.96875 0 0  1 0 0  1.03125 0 0  1.0625 0 0  1.09375 0 0  1.125 0 0  1.15625 0 0  1.1875 0 0  1.21875 0 0  1.25 0 0  1.28125 0 0  1.3125 0 0  1.34375 0 0  1.375 0 0  1.40625 0 0  1.4375 0 0  1.46875 0 0  1.5 0 0  0 0.03125 0  0.03125 0.03125 0  0.0625 0.03125 0  0.09375 0.03125 0  0.125 0.03125 0  0.15625 0.03125 0  0.1875 0.03125 0  0.21875 0.03125 0  0.25 0.03125 0  0.28125 0.03125 0  0.3125 0.03125 0  0.34375 0.03125 0  0.375 0.03125 0  0.40625 0.03125 0  0.4375 0.03125 0  0.46875 0.03125 0  0.5 0.03125 0  0.53125 0.03125 0  0.5625 0.03125 0  0.59375 0.03125 0  0.625 0.03125 0  0.65625 0.03125 0  0.6875 0.03125 0  0.71875 0.03125 0  0.75 0.03125 0  0.78125 0.03125 0  0.8125 0.03125 0  0.84375 0.03125 0  0.875 0.03125 0  0.90625 0.03125 0  0.9375 0.03125 0  0.96875 0.03125 0  1 0.03125 0  1.03125 0.03125 0  1.0625 0.03125 0  1.09375 0.03125 0  1.125 0.03125 0  1.15625 0.03125 0  1.1875 0.03125 0  1.21875 0.03125 0  1.25 0.03125 0  1.28125 0.03125 0  1.3125 0.03125 0  1.34375 0.03125 0  1.375 0.03125 0  1.40625 0.03125 0  1.4375 0.03125 0  1.46875 0.03125 0  1.5 0.03125 0  0 0.0625 0  0.03125 0.0625 0  0.0625 0.0625 0  0.09375 0.0625 0  0.125 0.0625 0  0.15625 0.0625 0  0.1875 0.0625 0  0.21875 0.0625 0  0.25 0.0625 0  0.28125 0.0625 0  0.3125 0.0625 0  0.34375 0.0625 0  0.375 0.0625 0  0.40625 0.0625 0  0.4375 0.0625 0  0.46875 0.0625 0  0.5 0.0625 0  0.53125 0.0625 0  0.5625 0.0625 0  0.59375 0.0625 0  0.625 0.0625 0  0.65625 0.0625 0  0.6875 0.0625 0  0.71875 0.0625 0  0.75 0.0625 0  0.78125 0.0625 0  0.8125 0.0625 0  0.84375 0.0625 0  0.875 0.0625 0  0.90625 0.0625 0  0.9375 0.0625 0  0.96875 0.0625 0  1 0.0625 0  1.03125 0.0625 0  1.0625 0.0625 0  1.09375 0.0625 0  1.125 0.0625 0  1.15625 0.0625 0  1.1875 0.0625 0  1.21875 0.0625 0  1.25 0.0625 0  1.28125 0.0625 0  1.3125 0.0625 0  1.34375 0.0625 0  1.375 0.0625 0  1.40625 0.0625 0  1.4375 0.0625 0  1.46875 0.0625 0  1.5 0.0625 0  0 0.09375 0  0.03125 0.09375 0  0.0625 0.09375 0  0.09375 0.09375 0  0.125 0.09375 0  0.15625 0.09375 0  0.1875 0.09375 0  0.21875 0.09375 0  0.25 0.09375 0  0.28125 0.09375 0  0.3125 0.09375 0  0.34375 0.09375 0  0.375 0.09375 0  0.40625 0.09375 0  0.4375 0.09375 0  0.46875 0.09375 0  0.5 0.09375 0  0.53125 0.09375 0  0.5625 0.09375 0  0.59375 0.09375 0  0.625 0.09375 0  0.65625 0.09375 0  0.6875 0.09375 0  0.71875 0.09375 0  0.75 0.09375 0  0.78125 0.09375 0  0.8125 0.09375 0  0.84375 0.09375 0  0.875 0.09375 0  0.90625 0.09375 0  0.9375 0.09375 0  0.96875 0.09375 0  1 0.09375 0  1.03125 0.09375 0  1.0625 0.09375 0  1.09375 0.09375 0  1.125 0.09375 0  1.15625 0.09375 0  1.1875 0.09375 0  1.21875 0.09375 0  1.25 0.09375 0  1.28125 0.09375 0  1.3125 0.09375 0  1.34375 0.09375 0  1.375 0.09375 0  1.40625 0.09375 0  1.4375 0.09375 0  1.46875 0.09375 0  1.5 0.09375 0  0 0.125 0  0.03125 0.125 0  0.0625 0.125 0  0.09375 0.125 0  0.125 0.125 0  0.15625 0.125 0  0.1875 0.125 0  0.21875 0.125 0  0.25 0.125 0  0.28125 0.125 0  0.3125 0.125 0  0.34375 0.125 0  0.375 0.125 0  0.40625 0.125 0  0.4375 0.125 0  0.46875 0.125 0  0.5 0.125 0  0.53125 0.125 0  0.5625 0.125 0  0.59375 0.125 0  0.625 0.125 0  0.65625 0.125 0  0.6875 0.125 0  0.71875 0.125 0  0.75 0.125 0  0.78125 0.125 0  0.8125 0.125 0  0.84375 0.125 0  0.875 0.125 0  0.90625 0.125 0  0.9375 0.125 0  0.96875 0.125 0  1 0.125 0  1.03125 0.125 0  1.0625 0.125 0  1.09375 0.125 0  1.125 0.125 0  1.15625 0.125 0  1.1875 0.125 0  1.21875 0.125 0  1.25 0.125 0  1.28125 0.125 0  1.3125 0.125 0  1.34375 0.125 0  1.375 0.125 0  1.40625 0.125 0  1.4375 0.125 0  1.46875 0.125 0  1.5 0.125 0  0 0.15625 0  0.03125 0.15625 0  0.0625 0.15625 0  0.09375 0.15625 0  0.125 0.15625 0  0.15625 0.15625 0  0.1875 0.15625 0  0.21875 0.15625 0  0.25 0.15625 0  0.28125 0.15625 0  0.3125 0.15625 0  0.34375 0.15625 0  0.375 0.15625 0  0.40625 0.15625 0  0.4375 0.15625 0  0.46875 0.15625 0  0.5 0.15625 0  0.53125 0.15625 0  0.5625 0.15625 0  0.59375 0.15625 0  0.625 0.15625 0  0.65625 0.15625 0  0.6875 0.15625 0  0.71875 0.15625 0  0.75 0.15625 0  0.78125 0.15625 0  0.8125 0.15625 0  0.84375 0.15625 0  0.875 0.15625 0  0.90625 0.15625 0  0.9375 0.15625 0  0.96875 0.15625 0  1 0.15625 0  1.03125 0.15625 0  1.0625 0.15625 0  1.09375 0.15625 0  1.125 0.15625 0  1.15625 0.15625 0  1.1875 0.15625 0  1.21875 0.15625 0  1.25 0.15625 0  1.28125 0.15625 0  1.3125 0.15625 0  1.34375 0.15625 0  1.375 0.15625 0  1.40625 0.15625 0  1.4375 0.15625 0  1.46875 0.15625 0  1.5 0.15625 0  0 0.1875 0  0.03125 0.1875 0  0.0625 0.1875 0  0.09375 0.1875 0  0.125 0.1875 0  0.15625 0.1875 0  0.1875 0.1875 0  0.21875 0.1875 0  0.25 0.1875 0  0.28125 0.1875 0  0.3125 0.1875 0  0.34375 0.1875 0  0.375 0.1875 0  0.40625 0.1875 0  0.4375 0.1875 0  0.46875 0.1875 0  0.5 0.1875 0  0.53125 0.1875 0  0.5625 0.1875 0  0.59375 0.1875 0  0.625 0.1875 0  0.65625 0.1875 0  0.6875 0.1875 0  0.71875 0.1875 0  0.75 0.1875 0  0.78125 0.1875 0  0.8125 0.1875 0  0.84375 0.1875 0  0.875 0.1875 0  0.90625 0.1875 0  0.9375 0.1875 0  0.96875 0.1875 0  1 0.1875 0  1.03125 0.1875 0  1.0625 0.1875 0  1.09375 0.1875 0  1.125 0.1875 0  1.15625 0.1875 0  1.1875 0.1875 0  1.21875 0.1875 0  1.25 0.1875 0  1.28125 0.1875 0  1.3125 0.1875 0  1.34375 0.1875 0  1.375 0.1875 0  1.40625 0.1875 0  1.4375 0.1875 0  1.46875 0.1875 0  1.5 0.1875 0  0 0.21875 0  0.03125 0.21875 0  0.0625 0.21875 0  0.09375 0.21875 0  0.125 0.21875 0  0.15625 0.21875 0  0.1875 0.21875 0  0.21875 0.21875 0  0.25 0.21875 0  0.28125 0.21875 0  0.3125 0.21875 0  0.34375 0.21875 0  0.375 0.21875 0  0.40625 0.21875 0  0.4375 0.21875 0  0.46875 0.21875 0  0.5 0.21875 0  0.53125 0.21875 0  0.5625 0.21875 0  0.59375 0.21875 0  0.625 0.21875 0  0.65625 0.21875 0  0.6875 0.21875 0  0.71875 0.21875 0  0.75 0.21875 0  0.78125 0.21875 0  0.8125 0.21875 0  0.84375 0.21875 0  0.875 0.21875 0  0.90625 0.21875 0  0.9375 0.21875 0  0.96875 0.21875 0  1 0.21875 0  1.03125 0.21875 0  1.0625 0.21875 0  1.09375 0.21875 0  1.125 0.21875 0  1.15625 0.21875 0  1.1875 0.21875 0  1.21875 0.21875 0  1.25 0.21875 0  1.28125 0.21875 0  1.3125 0.21875 0  1.34375 0.21875 0  1.375 0.21875 0  1.40625 0.21875 0  1.4375 0.21875 0  1.46875 0.21875 0  1.5 0.21875 0  0 0.25 0  0.03125 0.25 0  0.0625 0.25 0  0.09375 0.25 0  0.125 0.25 0  0.15625 0.25 0  0.1875 0.25 0  0.21875 0.25 0  0.25 0.25 0  0.28125 0.25 0  0.3125 0.25 0  0.34375 0.25 0  0.375 0.25 0  0.40625 0.25 0  0.4375 0.25 0  0.46875 0.25 0  0.5 0.25 0  0.53125 0.25 0  0.5625 0.25 0  0.59375 0.25 0  0.625 0.25 0  0.65625 0.25 0  0.6875 0.25 0  0.71875 0.25 0  0.75 0.25 0  0.78125 0.25 0  0.8125 0.25 0  0.84375 0.25 0  0.875 0.25 0  0.90625 0.25 0  0.9375 0.25 0  0.96875 0.25 0  1 0.25 0  1.03125 0.25 0  1.0625 0.25 0  1.09375 0.25 0  1.125 0.25 0  1.15625 0.25 0  1.1875 0.25 0  1.21875 0.25 0  1.25 0.25 0  1.28125 0.25 0  1.3125 0.25 0  1.34375 0.25 0  1.375 0.25 0  1.40625 0.25 0  1.4375 0.25 0  1.46875 0.25 0  1.5 0.25 0  0 0.28125 0  0.03125 0.28125 0  0.0625 0.28125 0  0.09375 0.28125 0  0.125 0.28125 0  0.15625 0.28125 0  0.1875 0.28125 0  0.21875 0.28125 0  0.25 0.28125 0  0.28125 0.28125 0  0.3125 0.28125 0  0.34375 0.28125 0  0.375 0.28125 0  0.40625 0.28125 0  0.4375 0.28125 0  0.46875 0.28125 0  0.5 0.28125 0  0.53125 0.28125 0  0.5625 0.28125 0  0.59375 0.28125 0  0.625 0.28125 0  0.65625 0.28125 0  0.6875 0.28125 0  0.71875 0.28125 0  0.75 0.28125 0  0.78125 0.28125 0  0.8125 0.28125 0  0.84375 0.28125 0  0.875 0.28125 0  0.90625 0.28125 0  0.9375 0.28125 0  0.96875 0.28125 0  1 0.28125 0  1.03125 0.28125 0  1.0625 0.28125 0  1.09375 0.28125 0  1.125 0.28125 0  1.15625 0.28125 0  1.1875 0.28125 0  1.21875 0.28125 0  1.25 0.28125 0  1.28125 0.28125 0  1.3125 0.28125 0  1.34375 0.28125 0  1.375 0.28125 0  1.40625 0.28125 0  1.4375 0.28125 0  1.46875 0.28125 0  1.5 0.28125 0  0 0.3125 0  0.03125 0.3125 0  0.0625 0.3125 0  0.09375 0.3125 0  0.125 0.3125 0  0.15625 0.3125 0  0.1875 0.3125 0  0.21875 0.3125 0  0.25 0.3125 0  0.28125 0.3125 0  0.3125 0.3125 0  0.34375 0.3125 0  0.375 0.3125 0  0.40625 0.3125 0  0.4375 0.3125 0  0.46875 0.3125 0  0.5 0.3125 0  0.53125 0.3125 0  0.5625 0.3125 0  0.59375 0.3125 0  0.625 0.3125 0  0.65625 0.3125 0  0.6875 0.3125 0  0.71875 0.3125 0  0.75 0.3125 0  0.78125 0.3125 0  0.8125 0.3125 0  0.84375 0.3125 0  0.875 0.3125 0  0.90625 0.3125 0  0.9375 0.3125 0  0.96875 0.3125 0  1 0.3125 0  1.03125 0.3125 0  1.0625 0.3125 0  1.09375 0.3125 0  1.125 0.3125 0  1.15625 0.3125 0  1.1875 0.3125 0  1.21875 0.3125 0  1.25 0.3125 0  1.28125 0.3125 0  1.3125 0.3125 0  1.34375 0.3125 0  1.375 0.3125 0  1.40625 0.3125 0  1.4375 0.3125 0  1.46875 0.3125 0  1.5 0.3125 0  0 0.34375 0  0.03125 0.34375 0  0.0625 0.34375 0  0.09375 0.34375 0  0.125 0.34375 0  0.15625 0.34375 0  0.1875 0.34375 0  0.21875 0.34375 0  0.25 0.34375 0  0.28125 0.34375 0  0.3125 0.34375 0  0.34375 0.34375 0  0.375 0.34375 0  0.40625 0.34375 0  0.4375 0.34375 0  0.46875 0.34375 0  0.5 0.34375 0  0.53125 0.34375 0  0.5625 0.34375 0  0.59375 0.34375 0  0.625 0.34375 0  0.65625 0.34375 0  0.6875 0.34375 0  0.71875 0.34375 0  0.75 0.34375 0  0.78125 0.34375 0  0.8125 0.34375 0  0.84375 0.34375 0  0.875 0.34375 0  0.90625 0.34375 0  0.9375 0.34375 0  0.96875 0.34375 0  1 0.34375 0  1.03125 0.34375 0  1.0625 0.34375 0  1.09375 0.34375 0  1.125 0.34375 0  1.15625 0.34375 0  1.1875 0.34375 0  1.21875 0.34375 0  1.25 0.34375 0  1.28125 0.34375 0  1.3125 0.34375 0  1.34375 0.34375 0  1.375 0.34375 0  1
[...]
<PointData  Vectors="f_17"> 
<DataArray  type="Float64"  Name="f_17"  NumberOfComponents="3" format="ascii">0.0000000000000000e+00 0.0000000000000000e+00 0.0000000000000000e+00  0.0000000000000000e+00 0.0000000000000000e+00 0.0000000000000000e+00  0.0000000000000000e+00 0.0000000000000000e+00 0.0000000000000000e+00  0.0000000000000000e+00 0.0000000000000000e+00 0.0000000000000000e+00  0.0000000000000000e+00 0.0000000000000000e+00 0.0000000000000000e+00  0.0000000000000000e+00 0.0000000000000000e+00 0.0000000000000000e+00  0.0000000000000000e+00 0.0000000000000000e+00 0.0000000000000000e+00  0.0000000000000000e+00 0.0000000000000000e+00 0.0000000000000000e+00  0.0000000000000000e+00 0.0000000000000000e+00 0.0000000000000000e+00  0.0000000000000000e+00 0.0000000000000000e+00 0.0000000000000000e+00  0.0000000000000000e+00 0.0000000000000000e+00 0.0000000000000000e+00  0.0000000000000000e+00 0.0000000000000000e+00 0.0000000000000000e+00  0.0000000000000000e+00 0.0000000000000000e+00 0.0000000000000000e+00  0.0000000000000000e+00 0.0000000000000000e+00 0.0000000000000000e+00  0.0000000000000000e+00 0.0000000000000000e+00 0.0000000000000000e+00  0.0000000000000000e+00 0.0000000000000000e+00 0.0000000000000000e+00  0.0000000000000000e+00 0.0000000000000000e+00 0.0000000000000000e+00  0.0000000000000000e+00 0.0000000000000000e+00 0.0000000000000000e+00  0.0000000000000000e+00 0.0000000000000000e+00 0.0000000000000000e+00  0.0000000000000000e+00 0.0000000000000000e+00 0.0000000000000000e+00  0.0000000000000000e+00 0.0000000000000000e+00 0.0000000000000000e+00  0.0000000000000000e+00 0.0000000000000000e+00 0.0000000000000000e+00  0.0000000000000000e+00 0.0000000000000000e+00 0.0000000000000000e+00  0.0000000000000000e+00 0.0000000000000000e+00 0.0000000000000000e+00  0.0000000000000000e+00 0.0000000000000000e+00 0.0000000000000000e+00  0.0000000000000000e+00 0.0000000000000000e+00 0.0000000000000000e+00  0.0000000000000000e+00 0.0000000000000000e+00 0.0000000000000000e+00  0.0000000000000000e+00 0.0000000000000000e+00 0.0000000000000000e+00  0.0000000000000000e+00 0.0000000000000000e+00 0.0000000000000000e+00  0.0000000000000000e+00 0.0000000000000000e+00 0.0000000000000000e+00  0.0000000000000000e+00 0.0000000000000000e+00 0.0000000000000000e+00  0.0000000000000000e+00 0.0000000000000000e+00 0.0000000000000000e+00  0.0000000000000000e+00 0.0000000000000000e+00 0.0000000000000000e+00  0.0000000000000000e+00 0.0000000000000000e+00 0.0000000000000000e+00  0.0000000000000000e+00 0.0000000000000000e+00 0.0000000000000000e+00  0.0000000000000000e+00 0.0000000000000000e+00 0.0000000000000000e+00  0.0000000000000000e+00 0.0000000000000000e+00 0.0000000000000000e+00  0.0000000000000000e+00 0.0000000000000000e+00 0.0000000000000000e+00  0.0000000000000000e+00 0.0000000000000000e+00 0.0000000000000000e+00  0.0000000000000000e+00 0.0000000000000000e+00 0.0000000000000000e+00  0.0000000000000000e+00 0.0000000000000000e+00 0.0000000000000000e+00  0.0000000000000000e+00 0.0000000000000000e+00 0.0000000000000000e+00  0.0000000000000000e+00 0.0000000000000000e+00 0.0000000000000000e+00  0.0000000000000000e+00 0.0000000000000000e+00 0.0000000000000000e+00  0.0000000000000000e+00 0.0000000000000000e+00 0.0000000000000000e+00  0.0000000000000000e+00 0.0000000000000000e+00 0.0000000000000000e+00  0.0000000000000000e+00 0.0000000000000000e+00 0.0000000000000000e+00  0.0000000000000000e+00 0.0000000000000000e+00 0.0000000000000000e+00  0.0000000000000000e+00 0.0000000000000000e+00 0.0000000000000000e+00  0.0000000000000000e+00 0.0000000000000000e+00 0.0000000000000000e+00  2.3357762856466055e-08 -3.2937874823949881e-09 0.0000000000000000e+00  -9.5769231843720419e-08 9.1152257666149313e-08 0.0000000000000000e+00  -1.8675491907080934e-08 -3.2109246661522341e-08 0.0000000000000000e+00  -2.0589506139897487e-07 -6.7313243892522147e-08 0.0000000000000000e+00  -1.8506984638247778e-07 -9.3351207421885971e-08 0.0000000000000000e+00  -1.6699437025245553e-07 -9.6484962416178999e-08 0.0000000000000000e+00  -1.5275842649967755e-07 -8.7138604564337795e-08 0.0000000000000000e+00  -1.2829087048789076e-07 -7.5349848530099292e-08 0.0000000000000000e+00  -1.0575211622645805e-07 -6.2782651357214670e-08 0.0000000000000000e+00  -8.5379068912326239e-08 -5.0678284618477898e-08 0.0000000000000000e+00  -6.8393668625761919e-08 -3.9454606539824009e-08 0.0000000000000000e+00  -5.5892477822055949e-08 -2.9140994432936897e-08 0.0000000000000000e+00  -4.8155541395815307e-08 -1.9690488716227783e-08 0.0000000000000000e+00  -4.5367820387100775e-08 -1.0991582014520569e-08 0.0000000000000000e+00  -4.7592883364713230e-08 -2.9084945587747567e-09 0.0000000000000000e+00  -5.4843129208164086e-08 4.6908239097619022e-09 0.0000000000000000e+00  -6.7125285984999105e-08 1.1908366403240011e-08 0.0000000000000000e+00  -8.4428864959840707e-08 1.8786242014488599e-08 0.0000000000000000e+00  -1.0668881137337494e-07 2.5278761321810585e-08 0.0000000000000000e+00  -1.3371989458597530e-07 3.1234953027499960e-08 0.0000000000000000e+00  -1.6513624885991103e-07 3.6401084178787542e-08 0.0000000000000000e+00  -2.0027854010580798e-07 4.0449449390780485e-08 0.0000000000000000e+00  -2.3817001930667485e-07 4.3031703330882799e-08 0.0000000000000000e+00  -2.7752638470781597e-07 4.3845448425167384e-08 0.0000000000000000e+00  -3.1681643322038578e-07 4.2696343892971337e-08 0.0000000000000000e+00  -3.5438506234732789e-07 3.9537192858763441e-08 0.0000000000000000e+00  -3.8857085814818596e-07 3.4475354532519419e-08 0.0000000000000000e+00  -4.1787713657534281e-07 2.7743448855012685e-08 0.0000000000000000e+00  -4.4098500086978600e-07 1.9657539899701226e-08 0.0000000000000000e+00  -4.5697637146508856e-07 1.0543975748251884e-08 0.0000000000000000e+00  -4.6497481023692543e-07 7.3047745785197811e-10 0.0000000000000000e+00  -4.6485645660621195e-07 -9.5806130907393878e-09 0.0000000000000000e+00  -4.5564407813926100e-07 -2.0111505398961140e-08 0.0000000000000000e+00  -4.3865607961646640e-07 -3.0993821838497130e-08 0.0000000000000000e+00  -4.1080336191488920e-07 -4.1652900067598732e-08 0.0000000000000000e+00  -3.7830779036559253e-07 -5.3228789681508193e-08 0.0000000000000000e+00  -3.2830004570828969e-07 -6.3114204118960263e-08 0.0000000000000000e+00  -2.8731050122787718e-07 -7.6786820028512446e-08 0.0000000000000000e+00  -2.0129675600129318e-07 -8.1826439899878551e-08 0.0000000000000000e+00  -1.8120878222891713e-07 -1.0363095341409226e-07 0.0000000000000000e+00  -3.5264407772749058e-09 -8.5647282018663209e-08 0.0000000000000000e+00  -1.2205706335669996e-07 -1.4202357560224828e-07 0.0000000000000000e+00  3.6313463063926573e-07 -2.6804653709166612e-08 0.0000000000000000e+00  -3.7141868505510830e-07 -2.3508638947190000e-07 0.0000000000000000e+00  1.1481012667036832e-06 2.3743955561453597e-07 0.0000000000000000e+00  -2.4284302686768564e-06 -7.4851468391277638e-07 0.0000000000000000e+00  2.6889816605344697e-06 1.3664688800264197e-06 0.0000000000000000e+00  0.0000000000000000e+00 0.0000000000000000e+00 0.0000000000000000e+00  0.0000000000000000e+00 0.0000000000000000e+00 0.0000000000000000e+00  -1.2482007599890275e-06 6.4514007537128776e-07 0.0000000000000000e+00  8.1111783735318803e-07 -6.5604348933129798e-08 0.0000000000000000e+00  -5.9197918651077260e-08 6.9303747728134130e-08 0.0000000000000000e+00  -2.1846259603607665e-07 -4.8074422427821697e-08 0.0000000000000000e+00  -2.2223795321008296e-07 -9.7929955098700368e-08 0.0000000000000000e+00  -2.6970058810610750e-07 -1.1702770084046579e-07 0.0000000000000000e+00  -2.5907546686303063e-07 -1.1865020599192480e-07 0.0000000000000000e+00  -2.3951596463521911e-07 -1.1102426808984710e-07 0.0000000000000000e+00  -2.1685581648839654e-07 -9.8414559033873072e-08 0.0000000000000000e+00  -1.9242356681756702e-07 -8.3567713710884844e-08 0.0000000000000000e+00  -1.7075913404204913e-07 -6.7843822517797208e-08 0.0000000000000000e+00  -1.5293593317092366e-07 -5.2011816566245301e-08 0.0000000000000000e+00  -1.3973891170477305e-07 -3.6480459683303739e-08 0.0000000000000000e+00  -1.3160619365462870e-07 -2.1415904970352488e-08 0.0000000000000000e+00  -1.2867068089299487e-07 -6.8407818718137907e-09 0.0000000000000000e+00  -1.3097967563100078e-07 7.2937024346222791e-09 0.0000000000000000e+00  -1.3852693839366380e-07 2.1040152671163385e-08 0.0000000000000000e+00  -1.5127280779943475e-07 3.4382937231521991e-08 0.0000000000000000e+00  -1.6912032399438881e-07 4.7169117853967816e-08 0.0000000000000000e+00  -1.9184909252311630e-07 5.9058248124661503e-08 0.0000000000000000e+00  -2.1902569964856883e-07 6.9511903110467654e-08 0.0000000000000000e+00  -2.4991659950842735e-07 7.7839337893711879e-08 0.0000000000000000e+00  -2.8343414277259281e-07 8.3299334919534975e-08 0.0000000000000000e+00  -3.1815073591127949e-07 8.5236570702760578e-08 0.0000000000000000e+00  -3.5238021739014764e-07 8.3214328929431748e-08 0.0000000000000000e+00  -3.8433676619942023e-07 7.7102391676056793e-08 0.0000000000000000e+00  -4.1228576768240330e-07 6.7096950774791134e-08 0.0000000000000000e+00  -4.3474430628129810e-07 5.3665897162911126e-08 0.0000000000000000e+00  -4.5048974223727539e-07 3.7456181753061944e-08 0.0000000000000000e+00  -4.5878640918281776e-07 1.9160438041829595e-08 0.0000000000000000e+00  -4.5896832552502956e-07 -5.4187354938515025e-10 0.0000000000000000e+00  -4.5118390672107574e-07 -2.1144751131196363e-08 0.0000000000000000e+00  -4.3466284592147200e-07 -4.2125374513818003e-08 0.0000000000000000e+00  -4.1105498362144964e-07 -6.3412970952750319e-08 0.0000000000000000e+00  -3.7739726889941015e-07 -8.4278685412067346e-08 0.0000000000000000e+00  -3.4043838369700611e-07 -1.0562607609709857e-07 0.0000000000000000e+00  -2.8732376172189764e-07 -1.2475863888103480e-07 0.0000000000000000e+00  -2.4561338026487860e-07 -1.4643235908390036e-07 0.0000000000000000e+00  -1.6129407443226404e-07 -1.5865109465702033e-07 0.0000000000000000e+00  -1.4687991315655721e-07 -1.8383681296279439e-07 0.0000000000000000e+00  1.9712755404223737e-08 -1.6963381447248687e-07 0.0000000000000000e+00  -1.1510049356061420e-07 -2.1769880209013182e-07 0.0000000000000000e+00  3.3749952388947175e-07 -1.0729522152161082e-07 0.0000000000000000e+00  -4.2514223447631602e-07 -2.8248971877230375e-07 0.0000000000000000e+00  9.7895743540314802e-07 1.5303362162004529e-07 0.0000000000000000e+00  -2.4497747158413414e-06 -6.1521319257398261e-07 0.0000000000000000e+00  2.6464283962280444e-06 1.4045189184385647e-06 0.0000000000000000e+00  0.0000000000000000e+00 0.0000000000000000e+00 0.0000000000000000e+00  0.0000000000000000e+00 0.0000000000000000e+00 0.0000000000000000e+00  -2.3008381475614923e-06 1.1085218158189401e-06 0.0000000000000000e+00  1.7592287115108158e-06 -1.7879589758283933e-07 0.0000000000000000e+00  -3.2484455638430996e-07 2.1451604727896368e-07 0.0000000000000000e+00  6.0205448361348503e-08 -3.9519224873523787e-08 0.0000000000000000e+00  -7.7390586962345142e-08 -6.6351904922873425e-08 0.0000000000000000e+00  -1.2584580535367557e-07 -1.1341875953804614e-07 0.0000000000000000e+00  -1.3381538889770986e-07 -1.2657125440367316e-07 0.0000000000000000e+00  -1.5232765042767751e-07 -1.2561700362181619e-07 0.0000000000000000e+00  -1.5612056520625065e-07 -1.1545404115285101e-07 0.0000000000000000e+00  -1.5579961925300882e-07 -1.0005356251923452e-07 0.0000000000000000e+00  -1.5368136742858625e-07 -8.1999469629876092e-08 0.0000000000000000e+00  -1.5090073235963192e-07 -6.2801930566513919e-08 0.0000000000000000e+00  -1.4914130161022094e-07 -4.3354631262292843e-08 0.0000000000000000e+00  -1.4916496532416216e-07 -2.4120300202524036e-08 0.0000000000000000e+00  -1.5152199465523428e-07 -5.2852261988602146e-09 0.0000000000000000e+00  -1.5658933922643823e-07 1.3128614723630688e-08 0.0000000000000000e+00  -1.6462431974573826e-07 3.1157103842294290e-08 0.0000000000000000e+00  -1.7582723508077167e-07 4.8778054010697866e-08 0.0000000000000000e+00  -1.9032745468327595e-07 6.5794515551607366e-08 0.0000000000000000e+00  -2.0812614086177415e-07 8.1740069529986651e-08 0.0000000000000000e+00  -2.2899930472637783e-07 9.5843717395728155e-08 0.0000000000000000e+00  -2.5239438996439268e-07 1.0708727332364304e-07 0.0000000000000000e+00  -2.7736497571609297e-07 1.1436125609088762e-07 0.0000000000000000e+00  -3.0259317489137701e-07 1.1668490036304523e-07 0.0000000000000000e+00  -3.2650436989146839e-07 1.1342310174728087e-07 0.0000000000000000e+00  -3.4747777587446921e-07 1.0442714692026460e-07 0.0000000000000000e+00  -3.6404383146385472e-07 9.0057662369333460e-08 0.0000000000000000e+00  -3.7511177303227767e-07 7.1085675613554500e-08 0.0000000000000000e+00  -3.7996315324594345e-07 4.8529816441292796e-08 0.0000000000000000e+00  -3.7845260907180245e-07 2.3450941297551055e-08 0.0000000000000000e+00  -3.7052026055575023e-07 -3.1561502122111229e-09 0.0000000000000000e+00  -3.5693613877403738e-07 -3.0549441707319458e-08 0.0000000000000000e+00  -3.3746335197221328e-07 -5.8038220949148510e-08 0.0000000000000000e+00  -3.1434308821069471e-07 -8.5440147488102610e-08 0.0000000000000000e+00  -2.8500227422246697e-07 -1.1191945679386851e-07 0.0000000000000000e+00  -2.5689409923161143e-07 -1.3825758551517655e-07 0.0000000000000000e+00  -2.1735350514293584e-07 -1.6159570708946969e-07 0.0000000000000000e+00  -1.9503997531602987e-07 -1.8633111058067862e-07 0.0000000000000000e+00  -1.3577410942688071e-07 -2.0044753963627550e-07 0.0000000000000000e+00  -1.5339056477877610e-07 -2.2505504897051986e-07 0.0000000000000000e+00  -2.6176808901189384e-08 -2.1029956473759171e-07 0.0000000000000000e+00  -2.0408401876453210e-07 -2.5166169515284606e-07 0.0000000000000000e+00  1.8972343258269696e-07 -1.4778912383422731e-07 0.0000000000000000e+00  -6.0576334496028178e-07 -3.0535418078951040e-07 0.0000000000000000e+00  7.1288608298102329e-07 7.6627493909317785e-08 0.0000000000000000e+00  -2.6399061029561048e-06 -5.8014437975508478e-07 0.0000000000000000e+00  2.2734657001613945e-06 1.1811900158045675e-06 0.0000000000000000e+00  0.0000000000000000e+00 0.0000000000000000e+00 0.0000000000000000e+00  0.0000000000000000e+00 0.0000000000000000e+00 0.0000000000000000e+00  -2.5587406397428355e-06 1.1486485564675934e-06 0.0000000000000000e+00  2.3646696433065909e-06 -2.1819836048246437e-07 0.0000000000000000e+00  -6.3378862519861769e-07 2.8394846319694208e-07 0.0000000000000000e+00  3.1710788003656525e-07 -3.8835700822695283e-08 0.0000000000000000e+00  -1.0621917615058489e-07 -6.5535682960653558e-09 0.0000000000000000e+00  -4.3114936699565258e-08 -8.4186173328486870e-08 0.0000000000000000e+00  -8.3920577058878771e-08 -9.9851078470524132e-08 0.0000000000000000e+00  -1.1176600949824904e-07 -1.1051893645825142e-07 0.0000000000000000e+00  -1.2479716844559151e-07 -1.0697570847702131e-07 0.0000000000000000e+00  -1.3745151200639921e-07 -9.6138726181399435e-08 0.0000000000000000e+00  -1.4515502345564992e-07 -8.0487649910247926e-08 0.0000000000000000e+00  -1.5089979828727704e-07 -6.2077913668613263e-08 0.0000000000000000e+00  -1.5585772029664299e-07 -4.2291456570460012e-08 0.0000000000000000e+00  -1.6072262147460474e-07 -2.1941143828950859e-08 0.0000000000000000e+00  -1.6618915738516663e-07 -1.4733655966397342e-09 0.0000000000000000e+00  -1.7268494683510569e-07 1.8937987933796825e-08 0.0000000000000000e+00  -1.8056709127770546e-07 3.9253977989448400e-08 0.0000000000000000e+00  -1.9015721536012136e-07 5.9417074208546069e-08 0.0000000000000000e+00  -2.0173764548085747e-07 7.9177700235027601e-08 0.0000000000000000e+00  -2.1549166831133648e-07 9.7935270264315225e-08 0.0000000000000000e+00  -2.3137568957474918e-07 1.1465811334413832e-07 0.0000000000000000e+00  -2.4897223024925001e-07 1.2794534059863999e-07 0.0000000000000000e+00  -2.6738927751414364e-07 1.3625255679993461e-07 0.0000000000000000e+00  -2.8528537922412757e-07 1.3822949843530722e-07 0.0000000000000000e+00  -3.0103666617542998e-07 1.3305441347297831e-07 0.0000000000000000e+00  -3.1303683730209432e-07 1.2063947387141457e-07 0.0000000000000000e+00  -3.1997478144284122e-07 1.0163903944157396e-07 0.0000000000000000e+00  -3.2110771029729962e-07 7.7269121610662716e-08 0.0000000000000000e+00  -3.1622222685648185e-07 4.9035135977201154e-08 0.0000000000000000e+00  -3.0579232572096364e-07 1.8431762281440672e-08 0.0000000000000000e+00  -2.9036386071513820e-07 -1.3219656331568618e-08 0.0000000000000000e+00  -2.7132113370642236e-07 -4.4965517839987706e-08 0.0000000000000000e+00  -2.4883579193587032e-07 -7.5995590870627999e-08 0.0000000000000000e+00  -2.2567867550085937e-07 -1.0604784981899661e-07 0.0000000000000000e+00  -1.9928561757456785e-07 -1.3422902103945247e-07 0.0000000000000000e+00  -1.7784715466788735e-07 -1.6117511554533226e-07 0.0000000000000000e+00  -1.4782112171755028e-07 -1.8397625879260599e-07 0.0000000000000000e+00  -1.3974463448602979e-07 -2.0657794890428068e-07 0.0000000000000000e+00  -9.5855860331779593e-08 -2.1743351045164579e-07 0.0000000000000000e+00  -1.3575738468159257e-07 -2.3616227810791083e-07 0.0000000000000000e+00  -2.5689212170346724e-08 -2.1689217592866546e-07 0.0000000000000000e+00  -2.3329057974906565e-07 -2.4850371741800273e-07 0.0000000000000000e+00  1.5383212747442443e-07 -1.4998778981766029e-07 0.0000000000000000e+00  -6.7360505987308242e-07 -2.9137537632912102e-07 0.0000000000000000e+00  6.6892719749358330e-07 4.3534727571004995e-08 0.0000000000000000e+00  -2.6863924379634485e-06 -5.3552058292148218e-07 0.0000000000000000e+00  2.2603503203479029e-06 1.0180373638519620e-06 0.0000000000000000e+00  0.0000000000000000e+00 0.0000000000000000e+00 0.0000000000000000e+00  0.0000000000000000e+00 0.0000000000000000e+00 0.0000000000000000e+00  -2.5113855817155344e-06 1.0388762436503877e-06 0.0000000000000000e+00  2.6044930597569537e-06 -2.0545390964540604e-07 0.0000000000000000e+00  -7.8117891667152782e-07 2.7899939718487752e-07 0.0000000000000000e+00  5.1836068412957813e-07 -3.4098628024472701e-08 0.0000000000000000e+00  -1.6481835353170637e-07 3.9291300142646920e-08 0.0000000000000000e+00  5.6789502596672409e-08 -5.6655213759902716e-08 0.0000000000000000e+00  -5.0732563149571319e-08 -6.5287492022177194e-08 0.0000000000000000e+00  -5.9445657951962007e-08 -8.6802038470416321e-08 0.0000000000000000e+00  -8.3957125191748121e-08 -8.7535064801349671e-08 0.0000000000000000e+00  -1.0486251310742516e-07 -8.1943540182726627e-08 0.0000000000000000e+00  -1.2008260452138544e-07 -6.9568152805959565e-08 0.0000000000000000e+00  -1.3362367996834642e-07 -5.3339397946005163e-08 0.0000000000000000e+00  -1.4494329164615376e-07 -3.4738625070909522e-08 0.0000000000000000e+00  -1.5501611022521094e-07 -1.4852992067267687e-08 0.0000000000000000e+00  -1.6439478941397826e-07 5.6610781956306619e-09 0.0000000000000000e+00  -1.7347407695748583e-07 2.6510396904297878e-08 0.0000000000000000e+00  -1.8265928647033108e-07 4.7613262985122606e-08 0.0000000000000000e+00  -1.9234843977060088e-07 6.8929153202339251e-08 0.0000000000000000e+00  -2.0296903616728450e-07 9.0216985870894320e-08 0.0000000000000000e+00  -2.1489934778905824e-07 1.1078480024952904e-07 0.0000000000000000e+00  -2.2829091099848364e-07 1.2932918282254867e-07 0.0000000000000000e+00  -2.4284303401936266e-07 1.4398705692101852e-07 0.0000000000000000e+00  -2.5763353526957631e-07 1.5266023793341837e-07 0.0000000000000000e+00  -2.7114140163153080e-07 1.5353618305066388e-07 0.0000000000000000e+00  -2.8150270975950793e-07 1.4560445134852243e-07 0.0000000000000000e+00  -2.8696328433190819e-07 1.2894912132916800e-07 0.0000000000000000e+00  -2.8629160786641254e-07 1.0470925087951323e-07 0.0000000000000000e+00  -2.7910994169194880e-07 7.4749086784218967e-08 0.0000000000000000e+00  -2.6579473665099805e-07 4.1211429602058041e-08 0.0000000000000000e+00  -2.4753337979718603e-07 6.0863769188986394e-09 0.0000000000000000e+00  -2.2554371358834968e-07 -2.9004667091012119e-08 0.0000000000000000e+00  -2.0181631047528763e-07 -6.2988417435442259e-08 0.0000000000000000e+00  -1.7688741665011832e-07 -9.5057312309862925e-08 0.0000000000000000e+00  -1.5389912978930086e-07 -1.2500387459