<?xml version="1.0"?>
<VTKFile type="UnstructuredGrid"  version="0.1"  >
<UnstructuredGrid>
<Piece  NumberOfPoints="1617" NumberOfCells="3072">
<Points>
<DataArray  type="Float64"  NumberOfComponents="3"  format="ascii">0 0 0  0.03125 0 0  0.0625 0 0  0.09375 0 0  0.125 0 0  0.15625 0 0  0.1875 0 0  0.21875 0 0  0.25 0 0  0.28125 0 0  0.3125 0 0  0.34375 0 0  0.375 0 0  0.40625 0 0  0.4375 0 0  0.46875 0 0  0.5 0 0  0.53125 0 0  0.5625 0 0  0.59375 0 0  0.625 0 0  0.65625 0 0  0.6875 0 0  0.71875 0 0  0.75 0 0  0.78125 0 0  0.8125 0 0  0.84375 0 0  0.875 0 0  0.90625 0 0  0.9375 0 0  0.96875 0 0  1 0 0  1.03125 0 0  1.0625 0 0  1.09375 0 0  1.125 0 0  1.15625 0 0  1.1875 0 0  1.21875 0 0  1.25 0 0  1.28125 0 0  1.3125 0 0  1.34375 0 0  1.375 0 0  1.40625 0 0  1.4375 0 0  1.46875 0 0  1.5 0 0  0 0.03125 0  0.03125 0.03125 0  0.0625 0.03125 0  0.09375 0.03125 0  0.125 0.03125 0  0.15625 0.03125 0  0.1875 0.03125 0  0.21875 0.03125 0  0.25 0.03125 0  0.28125 0.03125 0  0.3125 0.03125 0  0.34375 0.03125 0  0.375 0.03125 0  0.40625 0.03125 0  0.4375 0.03125 0  0.46875 0.03125 0  0.5 0.03125 0  0.53125 0.03125 0  0.5625 0.03125 0  0.59375 0.03125 0  0.625 0.03125 0  0.65625 0.03125 0  0.6875 0.03125 0  0.71875 0.03125 0  0.75 0.03125 0  0.78125 0.03125 0  0.8125 0.03125 0  0.84375 0.03125 0  0.875 0.03125 0  0.90625 0.03125 0  0.9375 0.03125 0  0.96875 0.03125 0  1 0.03125 0  1.03125 0.03125 0  1.0625 0.03125 0  1.09375 0.03125 0  1.125 0.03125 0  1.15625 0.03125 0  1.1875 0.03125 0  1.21875 0.03125 0  1.25 0.03125 0  1.28125 0.03125 0  1.3125 0.03125 0  1.34375 0.03125 0  1.375 0.03125 0  1.40625 0.03125 0  1.4375 0.03125 0  1.46875 0.03125 0  1.5 0.03125 0  0 0.0625 0  0.03125 0.0625 0  0.0625 0.0625 0  0.09375 0.0625 0  0.125 0.0625 0  0.15625 0.0625 0  0.1875 0.0625 0  0.21875 0.0625 0  0.25 0.0625 0  0.28125 0.0625 0  0.3125 0.0625 0  0.34375 0.0625 0  0.375 0.0625 0  0.40625 0.0625 0  0.4375 0.0625 0  0.46875 0.0625 0  0.5 0.0625 0  0.53125 0.0625 0  0.5625 0.0625 0  0.59375 0.0625 0  0.625 0.0625 0  0.65625 0.0625 0  0.6875 0.0625 0  0.71875 0.0625 0  0.75 0.0625 0  0.78125 0.0625 0  0.8125 0.0625 0  0.84375 0.0625 0  0.875 0.0625 0  0.90625 0.0625 0  0.9375 0.0625 0  0.96875 0.0625 0  1 0.0625 0  1.03125 0.0625 0  1.0625 0.0625 0  1.09375 0.0625 0  1.125 0.0625 0  1.15625 0.0625 0  1.1875 0.0625 0  1.21875 0.0625 0  1.25 0.0625 0  1.28125 0.0625 0  1.3125 0.0625 0  1.34375 0.0625 0  1.375 0.0625 0  1.40625 0.0625 0  1.4375 0.0625 0  1.46875 0.0625 0  1.5 0.0625 0  0 0.09375 0  0.03125 0.09375 0  0.0625 0.09375 0  0.09375 0.09375 0  0.125 0.09375 0  0.15625 0.09375 0  0.1875 0.09375 0  0.21875 0.09375 0  0.25 0.09375 0  0.28125 0.09375 0  0.3125 0.09375 0  0.34375 0.09375 0  0.375 0.09375 0  0.40625 0.09375 0  0.4375 0.09375 0  0.46875 0.09375 0  0.5 0.09375 0  0.53125 0.09375 0  0.5625 0.09375 0  0.59375 0.09375 0  0.625 0.09375 0  0.65625 0.09375 0  0.6875 0.09375 0  0.71875 0.09375 0  0.75 0.09375 0  0.78125 0.09375 0  0.8125 0.09375 0  0.84375 0.09375 0  0.875 0.09375 0  0.90625 0.09375 0  0.9375 0.09375 0  0.96875 0.09375 0  1 0.09375 0  1.03125 0.09375 0  1.0625 0.09375 0  1.09375 0.09375 0  1.125 0.09375 0  1.15625 0.09375 0  1.1875 0.09375 0  1.21875 0.09375 0  1.25 0.09375 0  1.28125 0.09375 0  1.3125 0.09375 0  1.34375 0.09375 0  1.375 0.09375 0  1.40625 0.09375 0  1.4375 0.09375 0  1.46875 0.09375 0  1.5 0.09375 0  0 0.125 0  0.03125 0.125 0  0.0625 0.125 0  0.09375 0.125 0  0.125 0.125 0  0.15625 0.125 0  0.1875 0.125 0  0.21875 0.125 0  0.25 0.125 0  0.28125 0.125 0  0.3125 0.125 0  0.34375 0.125 0  0.375 0.125 0  0.40625 0.125 0  0.4375 0.125 0  0.46875 0.125 0  0.5 0.125 0  0.53125 0.125 0  0.5625 0.125 0  0.59375 0.125 0  0.625 0.125 0  0.65625 0.125 0  0.6875 0.125 0  0.71875 0.125 0  0.75 0.125 0  0.78125 0.125 0  0.8125 0.125 0  0.84375 0.125 0  0.875 0.125 0  0.90625 0.125 0  0.9375 0.125 0  0.96875 0.125 0  1 0.125 0  1.03125 0.125 0  1.0625 0.125 0  1.09375 0.125 0  1.125 0.125 0  1.15625 0.125 0  1.1875 0.125 0  1.21875 0.125 0  1.25 0.125 0  1.28125 0.125 0  1.3125 0.125 0  1.34375 0.125 0  1.375 0.125 0  1.40625 0.125 0  1.4375 0.125 0  1.46875 0.125 0  1.5 0.125 0  0 0.15625 0  0.03125 0.15625 0  0.0625 0.15625 0  0.09375 0.15625 0  0.125 0.15625 0  0.15625 0.15625 0  0.1875 0.15625 0  0.21875 0.15625 0  0.25 0.15625 0  0.28125 0.15625 0  0.3125 0.15625 0  0.34375 0.15625 0  0.375 0.15625 0  0.40625 0.15625 0  0.4375 0.15625 0  0.46875 0.15625 0  0.5 0.15625 0  0.53125 0.15625 0  0.5625 0.15625 0  0.59375 0.15625 0  0.625 0.15625 0  0.65625 0.15625 0  0.6875 0.15625 0  0.71875 0.15625 0  0.75 0.15625 0  0.78125 0.15625 0  0.8125 0.15625 0  0.84375 0.15625 0  0.875 0.15625 0  0.90625 0.15625 0  0.9375 0.15625 0  0.96875 0.15625 0  1 0.15625 0  1.03125 0.15625 0  1.0625 0.15625 0  1.09375 0.15625 0  1.125 0.15625 0  1.15625 0.15625 0  1.1875 0.15625 0  1.21875 0.15625 0  1.25 0.15625 0  1.28125 0.15625 0  1.3125 0.15625 0  1.34375 0.15625 0  1.375 0.15625 0  1.40625 0.15625 0  1.4375 0.15625 0  1.46875 0.15625 0  1.5 0.15625 0  0 0.1875 0  0.03125 0.1875 0  0.0625 0.1875 0  0.09375 0.1875 0  0.125 0.1875 0  0.15625 0.1875 0  0.1875 0.1875 0  0.21875 0.1875 0  0.25 0.1875 0  0.28125 0.1875 0  0.3125 0.1875 0  0.34375 0.1875 0  0.375 0.1875 0  0.40625 0.1875 0  0.4375 0.1875 0  0.46875 0.1875 0  0.5 0.1875 0  0.53125 0.1875 0  0.5625 0.1875 0  0.59375 0.1875 0  0.625 0.1875 0  0.65625 0.1875 0  0.6875 0.1875 0  0.71875 0.1875 0  0.75 0.1875 0  0.78125 0.1875 0  0.8125 0.1875 0  0.84375 0.1875 0  0.875 0.1875 0  0.90625 0.1875 0  0.9375 0.1875 0  0.96875 0.1875 0  1 0.1875 0  1.03125 0.1875 0  1.0625 0.1875 0  1.09375 0.1875 0  1.125 0.1875 0  1.15625 0.1875 0  1.1875 0.1875 0  1.21875 0.1875 0  1.25 0.1875 0  1.28125 0.1875 0  1.3125 0.1875 0  1.34375 0.1875 0  1.375 0.1875 0  1.40625 0.1875 0  1.4375 0.1875 0  1.46875 0.1875 0  1.5 0.1875 0  0 0.21875 0  0.03125 0.21875 0  0.0625 0.21875 0  0.09375 0.21875 0  0.125 0.21875 0  0.15625 0.21875 0  0.1875 0.21875 0  0.21875 0.21875 0  0.25 0.21875 0  0.28125 0.21875 0  0.3125 0.21875 0  0.34375 0.21875 0  0.375 0.21875 0  0.40625 0.21875 0  0.4375 0.21875 0  0.46875 0.21875 0  0.5 0.21875 0  0.53125 0.21875 0  0.5625 0.21875 0  0.59375 0.21875 0  0.625 0.21875 0  0.65625 0.21875 0  0.6875 0.21875 0  0.71875 0.21875 0  0.75 0.21875 0  0.78125 0.21875 0  0.8125 0.21875 0  0.84375 0.21875 0  0.875 0.21875 0  0.90625 0.21875 0  0.9375 0.21875 0  0.96875 0.21875 0  1 0.21875 0  1.03125 0.21875 0  1.0625 0.21875 0  1.09375 0.21875 0  1.125 0.21875 0  1.15625 0.21875 0  1.1875 0.21875 0  1.21875 0.21875 0  1.25 0.21875 0  1.28125 0.21875 0  1.3125 0.21875 0  1.34375 0.21875 0  1.375 0.21875 0  1.40625 0.21875 0  1.4375 0.21875 0  1.46875 0.21875 0  1.5 0.21875 0  0 0.25 0  0.03125 0.25 0  0.0625 0.25 0  0.09375 0.25 0  0.125 0.25 0  0.15625 0.25 0  0.1875 0.25 0  0.21875 0.25 0  0.25 0.25 0  0.28125 0.25 0  0.3125 0.25 0  0.34375 0.25 0  0.375 0.25 0  0.40625 0.25 0  0.4375 0.25 0  0.46875 0.25 0  0.5 0.25 0  0.53125 0.25 0  0.5625 0.25 0  0.59375 0.25 0  0.625 0.25 0  0.65625 0.25 0  0.6875 0.25 0  0.71875 0.25 0  0.75 0.25 0  0.78125 0.25 0  0.8125 0.25 0  0.84375 0.25 0  0.875 0.25 0  0.90625 0.25 0  0.9375 0.25 0  0.96875 0.25 0  1 0.25 0  1.03125 0.25 0  1.0625 0.25 0  1.09375 0.25 0  1.125 0.25 0  1.15625 0.25 0  1.1875 0.25 0  1.21875 0.25 0  1.25 0.25 0  1.28125 0.25 0  1.3125 0.25 0  1.34375 0.25 0  1.375 0.25 0  1.40625 0.25 0  1.4375 0.25 0  1.46875 0.25 0  1.5 0.25 0  0 0.28125 0  0.03125 0.28125 0  0.0625 0.28125 0  0.09375 0.28125 0  0.125 0.28125 0  0.15625 0.28125 0  0.1875 0.28125 0  0.21875 0.28125 0  0.25 0.28125 0  0.28125 0.28125 0  0.3125 0.28125 0  0.34375 0.28125 0  0.375 0.28125 0  0.40625 0.28125 0  0.4375 0.28125 0  0.46875 0.28125 0  0.5 0.28125 0  0.53125 0.28125 0  0.5625 0.28125 0  0.59375 0.28125 0  0.625 0.28125 0  0.65625 0.28125 0  0.6875 0.28125 0  0.71875 0.28125 0  0.75 0.28125 0  0.78125 0.28125 0  0.8125 0.28125 0  0.84375 0.28125 0  0.875 0.28125 0  0.90625 0.28125 0  0.9375 0.28125 0  0.96875 0.28125 0  1 0.28125 0  1.03125 0.28125 0  1.0625 0.28125 0  1.09375 0.28125 0  1.125 0.28125 0  1.15625 0.28125 0  1.1875 0.28125 0  1.21875 0.28125 0  1.25 0.28125 0  1.28125 0.28125 0  1.3125 0.28125 0  1.34375 0.28125 0  1.375 0.28125 0  1.40625 0.28125 0  1.4375 0.28125 0  1.46875 0.28125 0  1.5 0.28125 0  0 0.3125 0  0.03125 0.3125 0  0.0625 0.3125 0  0.09375 0.3125 0  0.125 0.3125 0  0.15625 0.3125 0  0.1875 0.3125 0  0.21875 0.3125 0  0.25 0.3125 0  0.28125 0.3125 0  0.3125 0.3125 0  0.34375 0.3125 0  0.375 0.3125 0  0.40625 0.3125 0  0.4375 0.3125 0  0.46875 0.3125 0  0.5 0.3125 0  0.53125 0.3125 0  0.5625 0.3125 0  0.59375 0.3125 0  0.625 0.3125 0  0.65625 0.3125 0  0.6875 0.3125 0  0.71875 0.3125 0  0.75 0.3125 0  0.78125 0.3125 0  0.8125 0.3125 0  0.84375 0.3125 0  0.875 0.3125 0  0.90625 0.3125 0  0.9375 0.3125 0  0.96875 0.3125 0  1 0.3125 0  1.03125 0.3125 0  1.0625 0.3125 0  1.09375 0.3125 0  1.125 0.3125 0  1.15625 0.3125 0  1.1875 0.3125 0  1.21875 0.3125 0  1.25 0.3125 0  1.28125 0.3125 0  1.3125 0.3125 0  1.34375 0.3125 0  1.375 0.3125 0  1.40625 0.3125 0  1.4375 0.3125 0  1.46875 0.3125 0  1.5 0.3125 0  0 0.34375 0  0.03125 0.34375 0  0.0625 0.34375 0  0.09375 0.34375 0  0.125 0.34375 0  0.15625 0.34375 0  0.1875 0.34375 0  0.21875 0.34375 0  0.25 0.34375 0  0.28125 0.34375 0  0.3125 0.34375 0  0.34375 0.34375 0  0.375 0.34375 0  0.40625 0.34375 0  0.4375 0.34375 0  0.46875 0.34375 0  0.5 0.34375 0  0.53125 0.34375 0  0.5625 0.34375 0  0.59375 0.34375 0  0.625 0.34375 0  0.65625 0.34375 0  0.6875 0.34375 0  0.71875 0.34375 0  0.75 0.34375 0  0.78125 0.34375 0  0.8125 0.34375 0  0.84375 0.34375 0  0.875 0.34375 0  0.90625 0.34375 0  0.9375 0.34375 0  0.96875 0.34375 0  1 0.34375 0  1.03125 0.34375 0  1.0625 0.34375 0  1.09375 0.34375 0  1.125 0.34375 0  1.15625 0.34375 0  1.1875 0.34375 0  1.21875 0.34375 0  1.25 0.34375 0  1.28125 0.34375 0  1.3125 0.34375 0  1.34375 0.34375 0  1.375 0.34375 0  1
[...]
<PointData  Vectors="f_17"> 
<DataArray  type="Float64"  Name="f_17"  NumberOfComponents="3" format="ascii">0.0000000000000000e+00 0.0000000000000000e+00 0.0000000000000000e+00  0.0000000000000000e+00 0.0000000000000000e+00 0.0000000000000000e+00  0.0000000000000000e+00 0.0000000000000000e+00 0.0000000000000000e+00  0.0000000000000000e+00 0.0000000000000000e+00 0.0000000000000000e+00  0.0000000000000000e+00 0.0000000000000000e+00 0.0000000000000000e+00  0.0000000000000000e+00 0.0000000000000000e+00 0.0000000000000000e+00  0.0000000000000000e+00 0.0000000000000000e+00 0.0000000000000000e+00  0.0000000000000000e+00 0.0000000000000000e+00 0.0000000000000000e+00  0.0000000000000000e+00 0.0000000000000000e+00 0.0000000000000000e+00  0.0000000000000000e+00 0.0000000000000000e+00 0.0000000000000000e+00  0.0000000000000000e+00 0.0000000000000000e+00 0.0000000000000000e+00  0.0000000000000000e+00 0.0000000000000000e+00 0.0000000000000000e+00  0.0000000000000000e+00 0.0000000000000000e+00 0.0000000000000000e+00  0.0000000000000000e+00 0.0000000000000000e+00 0.0000000000000000e+00  0.0000000000000000e+00 0.0000000000000000e+00 0.0000000000000000e+00  0.0000000000000000e+00 0.0000000000000000e+00 0.0000000000000000e+00  0.0000000000000000e+00 0.0000000000000000e+00 0.0000000000000000e+00  0.0000000000000000e+00 0.0000000000000000e+00 0.0000000000000000e+00  0.0000000000000000e+00 0.0000000000000000e+00 0.0000000000000000e+00  0.0000000000000000e+00 0.0000000000000000e+00 0.0000000000000000e+00  0.0000000000000000e+00 0.0000000000000000e+00 0.0000000000000000e+00  0.0000000000000000e+00 0.0000000000000000e+00 0.0000000000000000e+00  0.0000000000000000e+00 0.0000000000000000e+00 0.0000000000000000e+00  0.0000000000000000e+00 0.0000000000000000e+00 0.0000000000000000e+00  0.0000000000000000e+00 0.0000000000000000e+00 0.0000000000000000e+00  0.0000000000000000e+00 0.0000000000000000e+00 0.0000000000000000e+00  0.0000000000000000e+00 0.0000000000000000e+00 0.0000000000000000e+00  0.0000000000000000e+00 0.0000000000000000e+00 0.0000000000000000e+00  0.0000000000000000e+00 0.0000000000000000e+00 0.0000000000000000e+00  0.0000000000000000e+00 0.0000000000000000e+00 0.0000000000000000e+00  0.0000000000000000e+00 0.0000000000000000e+00 0.0000000000000000e+00  0.0000000000000000e+00 0.0000000000000000e+00 0.0000000000000000e+00  0.0000000000000000e+00 0.0000000000000000e+00 0.0000000000000000e+00  0.0000000000000000e+00 0.0000000000000000e+00 0.0000000000000000e+00  0.0000000000000000e+00 0.0000000000000000e+00 0.0000000000000000e+00  0.0000000000000000e+00 0.0000000000000000e+00 0.0000000000000000e+00  0.0000000000000000e+00 0.0000000000000000e+00 0.0000000000000000e+00  0.0000000000000000e+00 0.0000000000000000e+00 0.0000000000000000e+00  0.0000000000000000e+00 0.0000000000000000e+00 0.0000000000000000e+00  0.0000000000000000e+00 0.0000000000000000e+00 0.0000000000000000e+00  0.0000000000000000e+00 0.0000000000000000e+00 0.0000000000000000e+00  0.0000000000000000e+00 0.0000000000000000e+00 0.0000000000000000e+00  0.0000000000000000e+00 0.0000000000000000e+00 0.0000000000000000e+00  0.0000000000000000e+00 0.0000000000000000e+00 0.0000000000000000e+00  0.0000000000000000e+00 0.0000000000000000e+00 0.0000000000000000e+00  0.0000000000000000e+00 0.0000000000000000e+00 0.0000000000000000e+00  0.0000000000000000e+00 0.0000000000000000e+00 0.0000000000000000e+00  0.0000000000000000e+00 0.0000000000000000e+00 0.0000000000000000e+00  0.0000000000000000e+00 0.0000000000000000e+00 0.0000000000000000e+00  0.0000000000000000e+00 0.0000000000000000e+00 0.0000000000000000e+00  1.3539900582658266e-07 4.1562909677171521e-08 0.0000000000000000e+00  -1.3538553311033143e-07 1.2076939171438555e-07 0.0000000000000000e+00  -1.3032496966713706e-07 -1.0757367234143436e-08 0.0000000000000000e+00  -3.4519041718550378e-07 -5.0919842453144718e-08 0.0000000000000000e+00  -3.3699280338503466e-07 -7.9033465403613340e-08 0.0000000000000000e+00  -3.3046889493778869e-07 -8.4879269162743059e-08 0.0000000000000000e+00  -3.2736860849074075e-07 -7.8783393320857014e-08 0.0000000000000000e+00  -3.1264314822820747e-07 -7.0079999132711388e-08 0.0000000000000000e+00  -2.9803579204582599e-07 -6.0049102142689367e-08 0.0000000000000000e+00  -2.8388448669133240e-07 -4.9817440328187921e-08 0.0000000000000000e+00  -2.7171275933086615e-07 -3.9837470906742429e-08 0.0000000000000000e+00  -2.6299052972383858e-07 -3.0238035047165372e-08 0.0000000000000000e+00  -2.5834976590126024e-07 -2.1092894863653333e-08 0.0000000000000000e+00  -2.5826849756468018e-07 -1.2409305811811203e-08 0.0000000000000000e+00  -2.6302917386339795e-07 -4.1590012491698430e-09 0.0000000000000000e+00  -2.7278633901998659e-07 3.6958164548862637e-09 0.0000000000000000e+00  -2.8761522871693073e-07 1.1174960890916260e-08 0.0000000000000000e+00  -3.0750522919852111e-07 1.8248469624264787e-08 0.0000000000000000e+00  -3.3232797234602404e-07 2.4807230497322424e-08 0.0000000000000000e+00  -3.6177747959332108e-07 3.0645044156217381e-08 0.0000000000000000e+00  -3.9529643014409562e-07 3.5461706907865440e-08 0.0000000000000000e+00  -4.3201188372800498e-07 3.8893143947092895e-08 0.0000000000000000e+00  -4.7070230078935692e-07 4.0566523555942292e-08 0.0000000000000000e+00  -5.0982086334830921e-07 4.0168675255450823e-08 0.0000000000000000e+00  -5.4757153318351236e-07 3.7509646943334283e-08 0.0000000000000000e+00  -5.8204847545451203e-07 3.2562400961673403e-08 0.0000000000000000e+00  -6.1136965199310940e-07 2.5469615302278989e-08 0.0000000000000000e+00  -6.3386230305254826e-07 1.6512437827249986e-08 0.0000000000000000e+00  -6.4808714523101187e-07 6.0656793559714804e-09 0.0000000000000000e+00  -6.5306959043727203e-07 -5.4786871528904405e-09 0.0000000000000000e+00  -6.4794393592171362e-07 -1.7723181007347760e-08 0.0000000000000000e+00  -6.3266798705033495e-07 -3.0392950466369019e-08 0.0000000000000000e+00  -6.0641529464764798e-07 -4.3134258820661017e-08 0.0000000000000000e+00  -5.7073357394464568e-07 -5.5997008103390732e-08 0.0000000000000000e+00  -5.2283645067181908e-07 -6.8314802314326075e-08 0.0000000000000000e+00  -4.6935103432480807e-07 -8.1123048672684298e-08 0.0000000000000000e+00  -3.9788962934793138e-07 -9.1694651017177914e-08 0.0000000000000000e+00  -3.3559412739594861e-07 -1.0537966024747808e-07 0.0000000000000000e+00  -2.2906830317672144e-07 -1.0963577392371631e-07 0.0000000000000000e+00  -1.8988995689998104e-07 -1.2977476421204784e-07 0.0000000000000000e+00  4.8163148370211741e-09 -1.0924757700261290e-07 0.0000000000000000e+00  -9.7598600841503917e-08 -1.6222135238342848e-07 0.0000000000000000e+00  4.0325250610972888e-07 -4.3097578121163845e-08 0.0000000000000000e+00  -3.0447977773767387e-07 -2.4570592580612505e-07 0.0000000000000000e+00  1.2339669814197958e-06 2.3262827904105721e-07 0.0000000000000000e+00  -2.4029499329129755e-06 -7.4026278407761154e-07 0.0000000000000000e+00  2.6447612542546676e-06 1.3903748421050713e-06 0.0000000000000000e+00  0.0000000000000000e+00 0.0000000000000000e+00 0.0000000000000000e+00  0.0000000000000000e+00 0.0000000000000000e+00 0.0000000000000000e+00  -1.1635413680893413e-06 7.3654255989179861e-07 0.0000000000000000e+00  7.9292657696559809e-07 1.5231143029777634e-08 0.0000000000000000e+00  -1.6828030487389163e-07 1.2918881723816283e-07 0.0000000000000000e+00  -3.6554959168949804e-07 -4.9723061179316659e-11 0.0000000000000000e+00  -3.8413290725377292e-07 -5.7502259172210210e-08 0.0000000000000000e+00  -4.4819858453205078e-07 -8.3748174427316170e-08 0.0000000000000000e+00  -4.5374822868110938e-07 -9.2587824038890305e-08 0.0000000000000000e+00  -4.4826160989136795e-07 -9.1567127621061312e-08 0.0000000000000000e+00  -4.3722106563986896e-07 -8.4516055806903638e-08 0.0000000000000000e+00  -4.2208739712780067e-07 -7.3999461854341999e-08 0.0000000000000000e+00  -4.0778487065868220e-07 -6.1402295978669061e-08 0.0000000000000000e+00  -3.9585097173339269e-07 -4.7639462882905933e-08 0.0000000000000000e+00  -3.8752348696090156e-07 -3.3319876764994832e-08 0.0000000000000000e+00  -3.8363501098413753e-07 -1.8822519952940886e-08 0.0000000000000000e+00  -3.8462908918079516e-07 -4.3744900283784598e-09 0.0000000000000000e+00  -3.9077106994465419e-07 9.8846236852422737e-09 0.0000000000000000e+00  -4.0217919756338434e-07 2.3835867715722763e-08 0.0000000000000000e+00  -4.1884772534423157e-07 3.7307085919810470e-08 0.0000000000000000e+00  -4.4062760804988722e-07 5.0002465754929290e-08 0.0000000000000000e+00  -4.6716606942847532e-07 6.1452881560924798e-08 0.0000000000000000e+00  -4.9782460165758853e-07 7.1008359564480678e-08 0.0000000000000000e+00  -5.3160247364885359e-07 7.7888723374161059e-08 0.0000000000000000e+00  -5.6709729048865845e-07 8.1291572110761185e-08 0.0000000000000000e+00  -6.0253777343919565e-07 8.0534659472220650e-08 0.0000000000000000e+00  -6.3588713995817411e-07 7.5193061134864692e-08 0.0000000000000000e+00  -6.6502606538517816e-07 6.5188582862596127e-08 0.0000000000000000e+00  -6.8792756026283870e-07 5.0807299560578050e-08 0.0000000000000000e+00  -7.0287942959546723e-07 3.2638559593441957e-08 0.0000000000000000e+00  -7.0851000751025165e-07 1.1473248767736746e-08 0.0000000000000000e+00  -7.0402683946281150e-07 -1.1839372583751459e-08 0.0000000000000000e+00  -6.8880383671566334e-07 -3.6458739280428563e-08 0.0000000000000000e+00  -6.6312859515311414e-07 -6.1717830919201123e-08 0.0000000000000000e+00  -6.2646424009976019e-07 -8.6933315889568261e-08 0.0000000000000000e+00  -5.8079382106593955e-07 -1.1187034681899137e-07 0.0000000000000000e+00  -5.2357629476220158e-07 -1.3562693936703623e-07 0.0000000000000000e+00  -4.6209328254659134e-07 -1.5891747344935248e-07 0.0000000000000000e+00  -3.8409861965327572e-07 -1.7884191812984623e-07 0.0000000000000000e+00  -3.1787122620077246e-07 -1.9994009388435536e-07 0.0000000000000000e+00  -2.1012051730806107e-07 -2.1002122838048067e-07 0.0000000000000000e+00  -1.7399564615233009e-07 -2.3133977853456397e-07 0.0000000000000000e+00  1.2027423849026426e-08 -2.1148051531254383e-07 0.0000000000000000e+00  -1.0427633023063315e-07 -2.5199556989849655e-07 0.0000000000000000e+00  3.6590173240848217e-07 -1.3212844703969012e-07 0.0000000000000000e+00  -3.6841120695441490e-07 -2.9448877344244875e-07 0.0000000000000000e+00  1.0416056302220785e-06 1.5565486866042140e-07 0.0000000000000000e+00  -2.4529030494598222e-06 -5.8636374723995766e-07 0.0000000000000000e+00  2.5488566463751258e-06 1.4517788170106372e-06 0.0000000000000000e+00  0.0000000000000000e+00 0.0000000000000000e+00 0.0000000000000000e+00  0.0000000000000000e+00 0.0000000000000000e+00 0.0000000000000000e+00  -2.2086750800547331e-06 1.2189768048316403e-06 0.0000000000000000e+00  1.7649554161906020e-06 -6.2789092656187196e-08 0.0000000000000000e+00  -4.0467808985720200e-07 3.0873319346590796e-07 0.0000000000000000e+00  -5.2924079977457367e-08 3.9131924693693936e-08 0.0000000000000000e+00  -2.0133456753775905e-07 -1.0555230791712318e-09 0.0000000000000000e+00  -2.6886843022403261e-07 -5.9660682961997399e-08 0.0000000000000000e+00  -2.9541081400840872e-07 -8.3624815817943652e-08 0.0000000000000000e+00  -3.3051695031481994e-07 -9.2272790778892165e-08 0.0000000000000000e+00  -3.4842876061739316e-07 -9.0238372590588366e-08 0.0000000000000000e+00  -3.5983859433265340e-07 -8.1293213855625465e-08 0.0000000000000000e+00  -3.6742241749877680e-07 -6.8032172044028387e-08 0.0000000000000000e+00  -3.7273485455195511e-07 -5.2123030496333076e-08 0.0000000000000000e+00  -3.7789313180582546e-07 -3.4701920869905361e-08 0.0000000000000000e+00  -3.8405212950530740e-07 -1.6509991314921629e-08 0.0000000000000000e+00  -3.9208714560872031e-07 1.9826223156252034e-09 0.0000000000000000e+00  -4.0261653452446254e-07 2.0479374667818409e-08 0.0000000000000000e+00  -4.1604837341566056e-07 3.8755762629596893e-08 0.0000000000000000e+00  -4.3264148343015543e-07 5.6543948472701966e-08 0.0000000000000000e+00  -4.5249297874528476e-07 7.3416521574047024e-08 0.0000000000000000e+00  -4.7548504703441581e-07 8.8694808080288843e-08 0.0000000000000000e+00  -5.0119525350867918e-07 1.0142046432468186e-07 0.0000000000000000e+00  -5.2880454418400202e-07 1.1042293421810660e-07 0.0000000000000000e+00  -5.5704811053764469e-07 1.1448730030838966e-07 0.0000000000000000e+00  -5.8425850334858899e-07 1.1258591827797842e-07 0.0000000000000000e+00  -6.0850468781320927e-07 1.0410399701909679e-07 0.0000000000000000e+00  -6.2782922325062844e-07 8.8983323421661052e-08 0.0000000000000000e+00  -6.4047257089032530e-07 6.7740685740693076e-08 0.0000000000000000e+00  -6.4512569951196029e-07 4.1356815107462377e-08 0.0000000000000000e+00  -6.4094324591819688e-07 1.1096106070944114e-08 0.0000000000000000e+00  -6.2775737065826286e-07 -2.1717554206928779e-08 0.0000000000000000e+00  -6.0559356562961751e-07 -5.5824860430180671e-08 0.0000000000000000e+00  -5.7541486049547472e-07 -9.0227352685113094e-08 0.0000000000000000e+00  -5.3727489885019188e-07 -1.2398824162750489e-07 0.0000000000000000e+00  -4.9380305308707075e-07 -1.5668539761815820e-07 0.0000000000000000e+00  -4.4289197223002368e-07 -1.8724231653327970e-07 0.0000000000000000e+00  -3.9255412374304444e-07 -2.1619158504053880e-07 0.0000000000000000e+00  -3.3072405712674232e-07 -2.4041663870539799e-07 0.0000000000000000e+00  -2.8673828615000378e-07 -2.6405370882787517e-07 0.0000000000000000e+00  -2.0702780753150908e-07 -2.7484411503250689e-07 0.0000000000000000e+00  -2.0593755312630417e-07 -2.9368624767718296e-07 0.0000000000000000e+00  -6.2092196730901693e-08 -2.7056446049959156e-07 0.0000000000000000e+00  -2.2411538401688950e-07 -3.0072174260435364e-07 0.0000000000000000e+00  1.8489877174407446e-07 -1.8252822980932480e-07 0.0000000000000000e+00  -5.8596608674634962e-07 -3.2127208681352016e-07 0.0000000000000000e+00  7.3532454388181822e-07 8.1829882002605574e-08 0.0000000000000000e+00  -2.6821964406507794e-06 -5.4496959229687975e-07 0.0000000000000000e+00  2.1581240099802597e-06 1.2339787954083213e-06 0.0000000000000000e+00  0.0000000000000000e+00 0.0000000000000000e+00 0.0000000000000000e+00  0.0000000000000000e+00 0.0000000000000000e+00 0.0000000000000000e+00  -2.4583596287709289e-06 1.2681861699364444e-06 0.0000000000000000e+00  2.3854953496666308e-06 -8.1652303006847265e-08 0.0000000000000000e+00  -6.8952133842699040e-07 4.0441045039704389e-07 0.0000000000000000e+00  2.3769970912320252e-07 6.6766369437152466e-08 0.0000000000000000e+00  -1.9057076119778952e-07 8.2638328571877114e-08 0.0000000000000000e+00  -1.4543659730497877e-07 -9.7569385794964057e-09 0.0000000000000000e+00  -2.0408955710897635e-07 -3.9203972378727075e-08 0.0000000000000000e+00  -2.4901665427046585e-07 -6.2066925364952922e-08 0.0000000000000000e+00  -2.7705806931734069e-07 -6.8953207158671286e-08 0.0000000000000000e+00  -3.0263489194968234e-07 -6.6531951980086521e-08 0.0000000000000000e+00  -3.2139395773635576e-07 -5.7278559964318352e-08 0.0000000000000000e+00  -3.3664791214174862e-07 -4.3394324791111417e-08 0.0000000000000000e+00  -3.4993110382391746e-07 -2.6519535802826393e-08 0.0000000000000000e+00  -3.6227926270679532e-07 -7.7856713884876085e-09 0.0000000000000000e+00  -3.7468270458540568e-07 1.2017777767655156e-08 0.0000000000000000e+00  -3.8779720086830917e-07 3.2369921371572101e-08 0.0000000000000000e+00  -4.0212933920299356e-07 5.2890482970641372e-08 0.0000000000000000e+00  -4.1806568888879687e-07 7.3190374666927990e-08 0.0000000000000000e+00  -4.3586728691381451e-07 9.2701943575157391e-08 0.0000000000000000e+00  -4.5561218712490055e-07 1.1052690450803794e-07 0.0000000000000000e+00  -4.7707451289766681e-07 1.2536801393887242e-07 0.0000000000000000e+00  -4.9958960284855266e-07 1.3560708506472596e-07 0.0000000000000000e+00  -5.2197053813956869e-07 1.3954918062846477e-07 0.0000000000000000e+00  -5.4255435080556454e-07 1.3577802505547849e-07 0.0000000000000000e+00  -5.5939277616544591e-07 1.2350376448881857e-07 0.0000000000000000e+00  -5.7057786311807072e-07 1.0277327255714902e-07 0.0000000000000000e+00  -5.7454614128768452e-07 7.4471489961364865e-08 0.0000000000000000e+00  -5.7037744459704790e-07 4.0121671724916278e-08 0.0000000000000000e+00  -5.5777639580861514e-07 1.5852240838021018e-09 0.0000000000000000e+00  -5.3724308374527393e-07 -3.9268344418782236e-08 0.0000000000000000e+00  -5.0945820379860855e-07 -8.0748957292838527e-08 0.0000000000000000e+00  -4.7604501988398726e-07 -1.2155557505874547e-07 0.0000000000000000e+00  -4.3750188248139820e-07 -1.6055627218618772e-07 0.0000000000000000e+00  -3.9700861253519261e-07 -1.9718871211665012e-07 0.0000000000000000e+00  -3.5246408982743745e-07 -2.3027200949156124e-07 0.0000000000000000e+00  -3.1258790206765854e-07 -2.6015891150801769e-07 0.0000000000000000e+00  -2.6436852226231643e-07 -2.8365818538866765e-07 0.0000000000000000e+00  -2.3891448631013389e-07 -3.0444050357878673e-07 0.0000000000000000e+00  -1.7891960020579231e-07 -3.1070590306791200e-07 0.0000000000000000e+00  -2.0431352733376266e-07 -3.2185005247372389e-07 0.0000000000000000e+00  -8.1468135517657739e-08 -2.9180870277392052e-07 0.0000000000000000e+00  -2.7647852823948613e-07 -3.0921330904541345e-07 0.0000000000000000e+00  1.2321818222030521e-07 -1.9282558753091731e-07 0.0000000000000000e+00  -6.8086557156099337e-07 -3.1183396043828018e-07 0.0000000000000000e+00  6.6511973113249490e-07 4.7055721583774546e-08 0.0000000000000000e+00  -2.7480353289672155e-06 -5.0197653267859941e-07 0.0000000000000000e+00  2.1365845734936367e-06 1.0685366115357504e-06 0.0000000000000000e+00  0.0000000000000000e+00 0.0000000000000000e+00 0.0000000000000000e+00  0.0000000000000000e+00 0.0000000000000000e+00 0.0000000000000000e+00  -2.4042880132032231e-06 1.1638515819480768e-06 0.0000000000000000e+00  2.6379860759693525e-06 -5.7605523616511994e-08 0.0000000000000000e+00  -8.1655983957911637e-07 4.1707483762386611e-07 0.0000000000000000e+00  4.6794593590235720e-07 9.1515626177309437e-08 0.0000000000000000e+00  -2.1441018192742375e-07 1.4842830464692329e-07 0.0000000000000000e+00  -6.6869360765413796e-09 3.6288170730921434e-08 0.0000000000000000e+00  -1.2911082950211416e-07 1.2061949465706732e-08 0.0000000000000000e+00  -1.5351765427258214e-07 -2.3506080721404612e-08 0.0000000000000000e+00  -1.9231803222217428e-07 -3.6448915813969811e-08 0.0000000000000000e+00  -2.2601622921251330e-07 -4.0873302637844994e-08 0.0000000000000000e+00  -2.5251699525829565e-07 -3.6275661880596457e-08 0.0000000000000000e+00  -2.7602704905813262e-07 -2.5693442942605398e-08 0.0000000000000000e+00  -2.9625813121315746e-07 -1.0858329533478993e-08 0.0000000000000000e+00  -3.1444711839096657e-07 6.8089580069033671e-09 0.0000000000000000e+00  -3.3138448977216987e-07 2.6272136797493930e-08 0.0000000000000000e+00  -3.4765467855867000e-07 4.6837055027032678e-08 0.0000000000000000e+00  -3.6379051380865114e-07 6.8013657896569541e-08 0.0000000000000000e+00  -3.8024592401515010e-07 8.9353718985257226e-08 0.0000000000000000e+00  -3.9742837127971569e-07 1.1021696629580359e-07 0.0000000000000000e+00  -4.1562097423463951e-07 1.2953284562345452e-07 0.0000000000000000e+00  -4.3481205558856302e-07 1.4565809229543123e-07 0.0000000000000000e+00  -4.5448304290579808e-07 1.5645159369532989e-07 0.0000000000000000e+00  -4.7345716053757287e-07 1.5962402234418305e-07 0.0000000000000000e+00  -4.8994175333902474e-07 1.5328224256021270e-07 0.0000000000000000e+00  -5.0180377781871510e-07 1.3646405471056298e-07 0.0000000000000000e+00  -5.0704303681064793e-07 1.0943796766556964e-07 0.0000000000000000e+00  -5.0422857464738048e-07 7.3654303764946382e-08 0.0000000000000000e+00  -4.9285560196842427e-07 3.1387677782478438e-08 0.0000000000000000e+00  -4.7326771769891577e-07 -1.4750379845229910e-08 0.0000000000000000e+00  -4.4672610351045078e-07 -6.2285863364871312e-08 0.0000000000000000e+00  -4.1462611329591301e-07 -1.0913333499134152e-07 0.0000000000000000e+00  -3.7922906660346401e-07 -1.5379592517176214e-07 0.0000000000000000e+00  -3.4141166372980754e-07 -1.9508848195188057e-07 0.0000000000000000e+00  -3.0471524978829679e-07 -2.3246618636707