<?xml version="1.0"?>
<VTKFile type="UnstructuredGrid"  version="0.1"  >
<UnstructuredGrid>
<Piece  NumberOfPoints="1617" NumberOfCells="3072">
<Points>
<DataArray  type="Float64"  NumberOfComponents="3"  format="ascii">0 0 0  0.03125 0 0  0.0625 0 0  0.09375 0 0  0.125 0 0  0.15625 0 0  0.1875 0 0  0.21875 0 0  0.25 0 0  0.28125 0 0  0.3125 0 0  0.34375 0 0  0.375 0 0  0.40625 0 0  0.4375 0 0  0.46875 0 0  0.5 0 0  0.53125 0 0  0.5625 0 0  0.59375 0 0  0.625 0 0  0.65625 0 0  0.6875 0 0  0.71875 0 0  0.75 0 0  0.78125 0 0  0.8125 0 0  0.84375 0 0  0.875 0 0  0.90625 0 0  0.9375 0 0  0.96875 0 0  1 0 0  1.03125 0 0  1.0625 0 0  1.09375 0 0  1.125 0 0  1.15625 0 0  1.1875 0 0  1.21875 0 0  1.25 0 0  1.28125 0 0  1.3125 0 0  1.34375 0 0  1.375 0 0  1.40625 0 0  1.4375 0 0  1.46875 0 0  1.5 0 0  0 0.03125 0  0.03125 0.03125 0  0.0625 0.03125 0  0.09375 0.03125 0  0.125 0.03125 0  0.15625 0.03125 0  0.1875 0.03125 0  0.21875 0.03125 0  0.25 0.03125 0  0.28125 0.03125 0  0.3125 0.03125 0  0.34375 0.03125 0  0.375 0.03125 0  0.40625 0.03125 0  0.4375 0.03125 0  0.46875 0.03125 0  0.5 0.03125 0  0.53125 0.03125 0  0.5625 0.03125 0  0.59375 0.03125 0  0.625 0.03125 0  0.65625 0.03125 0  0.6875 0.03125 0  0.71875 0.03125 0  0.75 0.03125 0  0.78125 0.03125 0  0.8125 0.03125 0  0.84375 0.03125 0  0.875 0.03125 0  0.90625 0.03125 0  0.9375 0.03125 0  0.96875 0.03125 0  1 0.03125 0  1.03125 0.03125 0  1.0625 0.03125 0  1.09375 0.03125 0  1.125 0.03125 0  1.15625 0.03125 0  1.1875 0.03125 0  1.21875 0.03125 0  1.25 0.03125 0  1.28125 0.03125 0  1.3125 0.03125 0  1.34375 0.03125 0  1.375 0.03125 0  1.40625 0.03125 0  1.4375 0.03125 0  1.46875 0.03125 0  1.5 0.03125 0  0 0.0625 0  0.03125 0.0625 0  0.0625 0.0625 0  0.09375 0.0625 0  0.125 0.0625 0  0.15625 0.0625 0  0.1875 0.0625 0  0.21875 0.0625 0  0.25 0.0625 0  0.28125 0.0625 0  0.3125 0.0625 0  0.34375 0.0625 0  0.375 0.0625 0  0.40625 0.0625 0  0.4375 0.0625 0  0.46875 0.0625 0  0.5 0.0625 0  0.53125 0.0625 0  0.5625 0.0625 0  0.59375 0.0625 0  0.625 0.0625 0  0.65625 0.0625 0  0.6875 0.0625 0  0.71875 0.0625 0  0.75 0.0625 0  0.78125 0.0625 0  0.8125 0.0625 0  0.84375 0.0625 0  0.875 0.0625 0  0.90625 0.0625 0  0.9375 0.0625 0  0.96875 0.0625 0  1 0.0625 0  1.03125 0.0625 0  1.0625 0.0625 0  1.09375 0.0625 0  1.125 0.0625 0  1.15625 0.0625 0  1.1875 0.0625 0  1.21875 0.0625 0  1.25 0.0625 0  1.28125 0.0625 0  1.3125 0.0625 0  1.34375 0.0625 0  1.375 0.0625 0  1.40625 0.0625 0  1.4375 0.0625 0  1.46875 0.0625 0  1.5 0.0625 0  0 0.09375 0  0.03125 0.09375 0  0.0625 0.09375 0  0.09375 0.09375 0  0.125 0.09375 0  0.15625 0.09375 0  0.1875 0.09375 0  0.21875 0.09375 0  0.25 0.09375 0  0.28125 0.09375 0  0.3125 0.09375 0  0.34375 0.09375 0  0.375 0.09375 0  0.40625 0.09375 0  0.4375 0.09375 0  0.46875 0.09375 0  0.5 0.09375 0  0.53125 0.09375 0  0.5625 0.09375 0  0.59375 0.09375 0  0.625 0.09375 0  0.65625 0.09375 0  0.6875 0.09375 0  0.71875 0.09375 0  0.75 0.09375 0  0.78125 0.09375 0  0.8125 0.09375 0  0.84375 0.09375 0  0.875 0.09375 0  0.90625 0.09375 0  0.9375 0.09375 0  0.96875 0.09375 0  1 0.09375 0  1.03125 0.09375 0  1.0625 0.09375 0  1.09375 0.09375 0  1.125 0.09375 0  1.15625 0.09375 0  1.1875 0.09375 0  1.21875 0.09375 0  1.25 0.09375 0  1.28125 0.09375 0  1.3125 0.09375 0  1.34375 0.09375 0  1.375 0.09375 0  1.40625 0.09375 0  1.4375 0.09375 0  1.46875 0.09375 0  1.5 0.09375 0  0 0.125 0  0.03125 0.125 0  0.0625 0.125 0  0.09375 0.125 0  0.125 0.125 0  0.15625 0.125 0  0.1875 0.125 0  0.21875 0.125 0  0.25 0.125 0  0.28125 0.125 0  0.3125 0.125 0  0.34375 0.125 0  0.375 0.125 0  0.40625 0.125 0  0.4375 0.125 0  0.46875 0.125 0  0.5 0.125 0  0.53125 0.125 0  0.5625 0.125 0  0.59375 0.125 0  0.625 0.125 0  0.65625 0.125 0  0.6875 0.125 0  0.71875 0.125 0  0.75 0.125 0  0.78125 0.125 0  0.8125 0.125 0  0.84375 0.125 0  0.875 0.125 0  0.90625 0.125 0  0.9375 0.125 0  0.96875 0.125 0  1 0.125 0  1.03125 0.125 0  1.0625 0.125 0  1.09375 0.125 0  1.125 0.125 0  1.15625 0.125 0  1.1875 0.125 0  1.21875 0.125 0  1.25 0.125 0  1.28125 0.125 0  1.3125 0.125 0  1.34375 0.125 0  1.375 0.125 0  1.40625 0.125 0  1.4375 0.125 0  1.46875 0.125 0  1.5 0.125 0  0 0.15625 0  0.03125 0.15625 0  0.0625 0.15625 0  0.09375 0.15625 0  0.125 0.15625 0  0.15625 0.15625 0  0.1875 0.15625 0  0.21875 0.15625 0  0.25 0.15625 0  0.28125 0.15625 0  0.3125 0.15625 0  0.34375 0.15625 0  0.375 0.15625 0  0.40625 0.15625 0  0.4375 0.15625 0  0.46875 0.15625 0  0.5 0.15625 0  0.53125 0.15625 0  0.5625 0.15625 0  0.59375 0.15625 0  0.625 0.15625 0  0.65625 0.15625 0  0.6875 0.15625 0  0.71875 0.15625 0  0.75 0.15625 0  0.78125 0.15625 0  0.8125 0.15625 0  0.84375 0.15625 0  0.875 0.15625 0  0.90625 0.15625 0  0.9375 0.15625 0  0.96875 0.15625 0  1 0.15625 0  1.03125 0.15625 0  1.0625 0.15625 0  1.09375 0.15625 0  1.125 0.15625 0  1.15625 0.15625 0  1.1875 0.15625 0  1.21875 0.15625 0  1.25 0.15625 0  1.28125 0.15625 0  1.3125 0.15625 0  1.34375 0.15625 0  1.375 0.15625 0  1.40625 0.15625 0  1.4375 0.15625 0  1.46875 0.15625 0  1.5 0.15625 0  0 0.1875 0  0.03125 0.1875 0  0.0625 0.1875 0  0.09375 0.1875 0  0.125 0.1875 0  0.15625 0.1875 0  0.1875 0.1875 0  0.21875 0.1875 0  0.25 0.1875 0  0.28125 0.1875 0  0.3125 0.1875 0  0.34375 0.1875 0  0.375 0.1875 0  0.40625 0.1875 0  0.4375 0.1875 0  0.46875 0.1875 0  0.5 0.1875 0  0.53125 0.1875 0  0.5625 0.1875 0  0.59375 0.1875 0  0.625 0.1875 0  0.65625 0.1875 0  0.6875 0.1875 0  0.71875 0.1875 0  0.75 0.1875 0  0.78125 0.1875 0  0.8125 0.1875 0  0.84375 0.1875 0  0.875 0.1875 0  0.90625 0.1875 0  0.9375 0.1875 0  0.96875 0.1875 0  1 0.1875 0  1.03125 0.1875 0  1.0625 0.1875 0  1.09375 0.1875 0  1.125 0.1875 0  1.15625 0.1875 0  1.1875 0.1875 0  1.21875 0.1875 0  1.25 0.1875 0  1.28125 0.1875 0  1.3125 0.1875 0  1.34375 0.1875 0  1.375 0.1875 0  1.40625 0.1875 0  1.4375 0.1875 0  1.46875 0.1875 0  1.5 0.1875 0  0 0.21875 0  0.03125 0.21875 0  0.0625 0.21875 0  0.09375 0.21875 0  0.125 0.21875 0  0.15625 0.21875 0  0.1875 0.21875 0  0.21875 0.21875 0  0.25 0.21875 0  0.28125 0.21875 0  0.3125 0.21875 0  0.34375 0.21875 0  0.375 0.21875 0  0.40625 0.21875 0  0.4375 0.21875 0  0.46875 0.21875 0  0.5 0.21875 0  0.53125 0.21875 0  0.5625 0.21875 0  0.59375 0.21875 0  0.625 0.21875 0  0.65625 0.21875 0  0.6875 0.21875 0  0.71875 0.21875 0  0.75 0.21875 0  0.78125 0.21875 0  0.8125 0.21875 0  0.84375 0.21875 0  0.875 0.21875 0  0.90625 0.21875 0  0.9375 0.21875 0  0.96875 0.21875 0  1 0.21875 0  1.03125 0.21875 0  1.0625 0.21875 0  1.09375 0.21875 0  1.125 0.21875 0  1.15625 0.21875 0  1.1875 0.21875 0  1.21875 0.21875 0  1.25 0.21875 0  1.28125 0.21875 0  1.3125 0.21875 0  1.34375 0.21875 0  1.375 0.21875 0  1.40625 0.21875 0  1.4375 0.21875 0  1.46875 0.21875 0  1.5 0.21875 0  0 0.25 0  0.03125 0.25 0  0.0625 0.25 0  0.09375 0.25 0  0.125 0.25 0  0.15625 0.25 0  0.1875 0.25 0  0.21875 0.25 0  0.25 0.25 0  0.28125 0.25 0  0.3125 0.25 0  0.34375 0.25 0  0.375 0.25 0  0.40625 0.25 0  0.4375 0.25 0  0.46875 0.25 0  0.5 0.25 0  0.53125 0.25 0  0.5625 0.25 0  0.59375 0.25 0  0.625 0.25 0  0.65625 0.25 0  0.6875 0.25 0  0.71875 0.25 0  0.75 0.25 0  0.78125 0.25 0  0.8125 0.25 0  0.84375 0.25 0  0.875 0.25 0  0.90625 0.25 0  0.9375 0.25 0  0.96875 0.25 0  1 0.25 0  1.03125 0.25 0  1.0625 0.25 0  1.09375 0.25 0  1.125 0.25 0  1.15625 0.25 0  1.1875 0.25 0  1.21875 0.25 0  1.25 0.25 0  1.28125 0.25 0  1.3125 0.25 0  1.34375 0.25 0  1.375 0.25 0  1.40625 0.25 0  1.4375 0.25 0  1.46875 0.25 0  1.5 0.25 0  0 0.28125 0  0.03125 0.28125 0  0.0625 0.28125 0  0.09375 0.28125 0  0.125 0.28125 0  0.15625 0.28125 0  0.1875 0.28125 0  0.21875 0.28125 0  0.25 0.28125 0  0.28125 0.28125 0  0.3125 0.28125 0  0.34375 0.28125 0  0.375 0.28125 0  0.40625 0.28125 0  0.4375 0.28125 0  0.46875 0.28125 0  0.5 0.28125 0  0.53125 0.28125 0  0.5625 0.28125 0  0.59375 0.28125 0  0.625 0.28125 0  0.65625 0.28125 0  0.6875 0.28125 0  0.71875 0.28125 0  0.75 0.28125 0  0.78125 0.28125 0  0.8125 0.28125 0  0.84375 0.28125 0  0.875 0.28125 0  0.90625 0.28125 0  0.9375 0.28125 0  0.96875 0.28125 0  1 0.28125 0  1.03125 0.28125 0  1.0625 0.28125 0  1.09375 0.28125 0  1.125 0.28125 0  1.15625 0.28125 0  1.1875 0.28125 0  1.21875 0.28125 0  1.25 0.28125 0  1.28125 0.28125 0  1.3125 0.28125 0  1.34375 0.28125 0  1.375 0.28125 0  1.40625 0.28125 0  1.4375 0.28125 0  1.46875 0.28125 0  1.5 0.28125 0  0 0.3125 0  0.03125 0.3125 0  0.0625 0.3125 0  0.09375 0.3125 0  0.125 0.3125 0  0.15625 0.3125 0  0.1875 0.3125 0  0.21875 0.3125 0  0.25 0.3125 0  0.28125 0.3125 0  0.3125 0.3125 0  0.34375 0.3125 0  0.375 0.3125 0  0.40625 0.3125 0  0.4375 0.3125 0  0.46875 0.3125 0  0.5 0.3125 0  0.53125 0.3125 0  0.5625 0.3125 0  0.59375 0.3125 0  0.625 0.3125 0  0.65625 0.3125 0  0.6875 0.3125 0  0.71875 0.3125 0  0.75 0.3125 0  0.78125 0.3125 0  0.8125 0.3125 0  0.84375 0.3125 0  0.875 0.3125 0  0.90625 0.3125 0  0.9375 0.3125 0  0.96875 0.3125 0  1 0.3125 0  1.03125 0.3125 0  1.0625 0.3125 0  1.09375 0.3125 0  1.125 0.3125 0  1.15625 0.3125 0  1.1875 0.3125 0  1.21875 0.3125 0  1.25 0.3125 0  1.28125 0.3125 0  1.3125 0.3125 0  1.34375 0.3125 0  1.375 0.3125 0  1.40625 0.3125 0  1.4375 0.3125 0  1.46875 0.3125 0  1.5 0.3125 0  0 0.34375 0  0.03125 0.34375 0  0.0625 0.34375 0  0.09375 0.34375 0  0.125 0.34375 0  0.15625 0.34375 0  0.1875 0.34375 0  0.21875 0.34375 0  0.25 0.34375 0  0.28125 0.34375 0  0.3125 0.34375 0  0.34375 0.34375 0  0.375 0.34375 0  0.40625 0.34375 0  0.4375 0.34375 0  0.46875 0.34375 0  0.5 0.34375 0  0.53125 0.34375 0  0.5625 0.34375 0  0.59375 0.34375 0  0.625 0.34375 0  0.65625 0.34375 0  0.6875 0.34375 0  0.71875 0.34375 0  0.75 0.34375 0  0.78125 0.34375 0  0.8125 0.34375 0  0.84375 0.34375 0  0.875 0.34375 0  0.90625 0.34375 0  0.9375 0.34375 0  0.96875 0.34375 0  1 0.34375 0  1.03125 0.34375 0  1.0625 0.34375 0  1.09375 0.34375 0  1.125 0.34375 0  1.15625 0.34375 0  1.1875 0.34375 0  1.21875 0.34375 0  1.25 0.34375 0  1.28125 0.34375 0  1.3125 0.34375 0  1.34375 0.34375 0  1.375 0.34375 0  1
[...]
<PointData  Vectors="f_17"> 
<DataArray  type="Float64"  Name="f_17"  NumberOfComponents="3" format="ascii">0.0000000000000000e+00 0.0000000000000000e+00 0.0000000000000000e+00  0.0000000000000000e+00 0.0000000000000000e+00 0.0000000000000000e+00  0.0000000000000000e+00 0.0000000000000000e+00 0.0000000000000000e+00  0.0000000000000000e+00 0.0000000000000000e+00 0.0000000000000000e+00  0.0000000000000000e+00 0.0000000000000000e+00 0.0000000000000000e+00  0.0000000000000000e+00 0.0000000000000000e+00 0.0000000000000000e+00  0.0000000000000000e+00 0.0000000000000000e+00 0.0000000000000000e+00  0.0000000000000000e+00 0.0000000000000000e+00 0.0000000000000000e+00  0.0000000000000000e+00 0.0000000000000000e+00 0.0000000000000000e+00  0.0000000000000000e+00 0.0000000000000000e+00 0.0000000000000000e+00  0.0000000000000000e+00 0.0000000000000000e+00 0.0000000000000000e+00  0.0000000000000000e+00 0.0000000000000000e+00 0.0000000000000000e+00  0.0000000000000000e+00 0.0000000000000000e+00 0.0000000000000000e+00  0.0000000000000000e+00 0.0000000000000000e+00 0.0000000000000000e+00  0.0000000000000000e+00 0.0000000000000000e+00 0.0000000000000000e+00  0.0000000000000000e+00 0.0000000000000000e+00 0.0000000000000000e+00  0.0000000000000000e+00 0.0000000000000000e+00 0.0000000000000000e+00  0.0000000000000000e+00 0.0000000000000000e+00 0.0000000000000000e+00  0.0000000000000000e+00 0.0000000000000000e+00 0.0000000000000000e+00  0.0000000000000000e+00 0.0000000000000000e+00 0.0000000000000000e+00  0.0000000000000000e+00 0.0000000000000000e+00 0.0000000000000000e+00  0.0000000000000000e+00 0.0000000000000000e+00 0.0000000000000000e+00  0.0000000000000000e+00 0.0000000000000000e+00 0.0000000000000000e+00  0.0000000000000000e+00 0.0000000000000000e+00 0.0000000000000000e+00  0.0000000000000000e+00 0.0000000000000000e+00 0.0000000000000000e+00  0.0000000000000000e+00 0.0000000000000000e+00 0.0000000000000000e+00  0.0000000000000000e+00 0.0000000000000000e+00 0.0000000000000000e+00  0.0000000000000000e+00 0.0000000000000000e+00 0.0000000000000000e+00  0.0000000000000000e+00 0.0000000000000000e+00 0.0000000000000000e+00  0.0000000000000000e+00 0.0000000000000000e+00 0.0000000000000000e+00  0.0000000000000000e+00 0.0000000000000000e+00 0.0000000000000000e+00  0.0000000000000000e+00 0.0000000000000000e+00 0.0000000000000000e+00  0.0000000000000000e+00 0.0000000000000000e+00 0.0000000000000000e+00  0.0000000000000000e+00 0.0000000000000000e+00 0.0000000000000000e+00  0.0000000000000000e+00 0.0000000000000000e+00 0.0000000000000000e+00  0.0000000000000000e+00 0.0000000000000000e+00 0.0000000000000000e+00  0.0000000000000000e+00 0.0000000000000000e+00 0.0000000000000000e+00  0.0000000000000000e+00 0.0000000000000000e+00 0.0000000000000000e+00  0.0000000000000000e+00 0.0000000000000000e+00 0.0000000000000000e+00  0.0000000000000000e+00 0.0000000000000000e+00 0.0000000000000000e+00  0.0000000000000000e+00 0.0000000000000000e+00 0.0000000000000000e+00  0.0000000000000000e+00 0.0000000000000000e+00 0.0000000000000000e+00  0.0000000000000000e+00 0.0000000000000000e+00 0.0000000000000000e+00  0.0000000000000000e+00 0.0000000000000000e+00 0.0000000000000000e+00  0.0000000000000000e+00 0.0000000000000000e+00 0.0000000000000000e+00  0.0000000000000000e+00 0.0000000000000000e+00 0.0000000000000000e+00  0.0000000000000000e+00 0.0000000000000000e+00 0.0000000000000000e+00  0.0000000000000000e+00 0.0000000000000000e+00 0.0000000000000000e+00  0.0000000000000000e+00 0.0000000000000000e+00 0.0000000000000000e+00  0.0000000000000000e+00 0.0000000000000000e+00 0.0000000000000000e+00  1.4716437682563930e-07 3.4946528389405302e-08 0.0000000000000000e+00  -1.0513769411058770e-07 1.0724876377451225e-07 0.0000000000000000e+00  -9.2025068594913406e-08 -2.7840149310116822e-08 0.0000000000000000e+00  -3.0408959089287232e-07 -6.9259544631658978e-08 0.0000000000000000e+00  -2.9001761147211352e-07 -9.6054755407722281e-08 0.0000000000000000e+00  -2.7411431094298217e-07 -9.9031106820357864e-08 0.0000000000000000e+00  -2.6083019988813106e-07 -8.9839926850582464e-08 0.0000000000000000e+00  -2.3687651959812521e-07 -7.8548373466473061e-08 0.0000000000000000e+00  -2.1457678952574293e-07 -6.6632619684315992e-08 0.0000000000000000e+00  -1.9413748765258918e-07 -5.5136727804691393e-08 0.0000000000000000e+00  -1.7672970089373746e-07 -4.4351630515291488e-08 0.0000000000000000e+00  -1.6347668779839052e-07 -3.4261770034315328e-08 0.0000000000000000e+00  -1.5474506260158333e-07 -2.4835120520790388e-08 0.0000000000000000e+00  -1.5082930106595696e-07 -1.6006250452978551e-08 0.0000000000000000e+00  -1.5189234527172957e-07 -7.6955009397471299e-09 0.0000000000000000e+00  -1.5801709192986246e-07 1.7464695309312211e-10 0.0000000000000000e+00  -1.6924486452148612e-07 7.6581112660487346e-09 0.0000000000000000e+00  -1.8556368360896642e-07 1.4756666502291564e-08 0.0000000000000000e+00  -2.0687400989638785e-07 2.1391925900647545e-08 0.0000000000000000e+00  -2.3292763389485823e-07 2.7387446535464417e-08 0.0000000000000000e+00  -2.6325244977123914e-07 3.2470871404424029e-08 0.0000000000000000e+00  -2.9708543805923353e-07 3.6302391470021175e-08 0.0000000000000000e+00  -3.3333505229505958e-07 3.8527755280380178e-08 0.0000000000000000e+00  -3.7059778289257145e-07 3.8844529434975116e-08 0.0000000000000000e+00  -4.0722559042322940e-07 3.7063886487383238e-08 0.0000000000000000e+00  -4.4145548162019663e-07 3.3149351156416668e-08 0.0000000000000000e+00  -4.7153307041134192e-07 2.7223779582221035e-08 0.0000000000000000e+00  -4.9588886075961441e-07 1.9539485287113907e-08 0.0000000000000000e+00  -5.1315533091533215e-07 1.0435752635617786e-08 0.0000000000000000e+00  -5.2239337282527231e-07 2.6510012692997417e-10 0.0000000000000000e+00  -5.2273507288230218e-07 -1.0615828200333528e-08 0.0000000000000000e+00  -5.1409801681944708e-07 -2.1972649539678286e-08 0.0000000000000000e+00  -4.9558078491234398e-07 -3.3491392224633764e-08 0.0000000000000000e+00  -4.6861914020256902e-07 -4.5262222946291395e-08 0.0000000000000000e+00  -4.3028161947058510e-07 -5.6663215594159514e-08 0.0000000000000000e+00  -3.8699199192460922e-07 -6.8783423326452428e-08 0.0000000000000000e+00  -3.2610039651209865e-07 -7.8967676283410328e-08 0.0000000000000000e+00  -2.7431393815632127e-07 -9.2659240057938609e-08 0.0000000000000000e+00  -1.7768892979847859e-07 -9.7438061822024192e-08 0.0000000000000000e+00  -1.4684132440642033e-07 -1.1872137664915114e-07 0.0000000000000000e+00  4.1728581098356312e-08 -1.0003321956515578e-07 0.0000000000000000e+00  -6.3948640144396158e-08 -1.5534843536265108e-07 0.0000000000000000e+00  4.3323679663135391e-07 -3.8768779836263784e-08 0.0000000000000000e+00  -2.8264200711525998e-07 -2.4329408605363259e-07 0.0000000000000000e+00  1.2326914348483127e-06 2.3382570609309838e-07 0.0000000000000000e+00  -2.4199063808600503e-06 -7.3810570162389748e-07 0.0000000000000000e+00  2.6330863834095227e-06 1.3907040475071570e-06 0.0000000000000000e+00  0.0000000000000000e+00 0.0000000000000000e+00 0.0000000000000000e+00  0.0000000000000000e+00 0.0000000000000000e+00 0.0000000000000000e+00  -1.1431800585260591e-06 7.2186588139415983e-07 0.0000000000000000e+00  8.3336702195862334e-07 -9.0675014511104069e-09 0.0000000000000000e+00  -1.2137711281334978e-07 9.9592562701459254e-08 0.0000000000000000e+00  -3.2050392439755273e-07 -3.2525101335927190e-08 0.0000000000000000e+00  -3.3507885595119532e-07 -8.8866526914758908e-08 0.0000000000000000e+00  -3.8915417585793677e-07 -1.1125607976716562e-07 0.0000000000000000e+00  -3.8259677224287091e-07 -1.1533990955312698e-07 0.0000000000000000e+00  -3.6550988499204578e-07 -1.0992208343553458e-07 0.0000000000000000e+00  -3.4443181107517341e-07 -9.9381147245144119e-08 0.0000000000000000e+00  -3.2088454893969362e-07 -8.6330857967966135e-08 0.0000000000000000e+00  -2.9947892354046397e-07 -7.2002923804643949e-08 0.0000000000000000e+00  -2.8137952376138136e-07 -5.7117979011177055e-08 0.0000000000000000e+00  -2.6750814635036193e-07 -4.2114506615640664e-08 0.0000000000000000e+00  -2.5846015339791588e-07 -2.7237579986067195e-08 0.0000000000000000e+00  -2.5451254842339683e-07 -1.2609704945687412e-08 0.0000000000000000e+00  -2.5582199478354317e-07 1.7155117836554270e-09 0.0000000000000000e+00  -2.6244688199391051e-07 1.5695098622674276e-08 0.0000000000000000e+00  -2.7436543205685289e-07 2.9228355857301580e-08 0.0000000000000000e+00  -2.9145403028456611e-07 4.2088977776841401e-08 0.0000000000000000e+00  -3.1342545876670078e-07 5.3875421449925369e-08 0.0000000000000000e+00  -3.3974506877667200e-07 6.4001145910175179e-08 0.0000000000000000e+00  -3.6955065457786595e-07 7.1741208720435278e-08 0.0000000000000000e+00  -4.0160664246292468e-07 7.6335085130680024e-08 0.0000000000000000e+00  -4.3432740289664255e-07 7.7123786298798814e-08 0.0000000000000000e+00  -4.6586839914721993e-07 7.3682839188572825e-08 0.0000000000000000e+00  -4.9429508172928025e-07 6.5909678407872499e-08 0.0000000000000000e+00  -5.1774336738072364e-07 5.4042055236800477e-08 0.0000000000000000e+00  -5.3462895726898785e-07 3.8600829957030569e-08 0.0000000000000000e+00  -5.4366302997469576e-07 2.0294211390387590e-08 0.0000000000000000e+00  -5.4408458667891681e-07 -1.1860548234860476e-10 0.0000000000000000e+00  -5.3524611859691691e-07 -2.1888385889326977e-08 0.0000000000000000e+00  -5.1736159809713736e-07 -4.4436660390379222e-08 0.0000000000000000e+00  -4.8977322831039430e-07 -6.7164613270807450e-08 0.0000000000000000e+00  -4.5429510665133167e-07 -8.9920026144037200e-08 0.0000000000000000e+00  -4.0817405505586847e-07 -1.1188659760660766e-07 0.0000000000000000e+00  -3.5841271775516375e-07 -1.3387544311281387e-07 0.0000000000000000e+00  -2.9241982119963334e-07 -1.5310146834709662e-07 0.0000000000000000e+00  -2.3796568645817457e-07 -1.7424258190848717e-07 0.0000000000000000e+00  -1.4117116534068851e-07 -1.8525507159001686e-07 0.0000000000000000e+00  -1.1430656668982826e-07 -2.0851090283540752e-07 0.0000000000000000e+00  6.4457582194298002e-08 -1.9159624384150166e-07 0.0000000000000000e+00  -5.7109809967240794e-08 -2.3581930332773790e-07 0.0000000000000000e+00  4.0556668402966308e-07 -1.1994436490926848e-07 0.0000000000000000e+00  -3.4278347780449222e-07 -2.8583348223215446e-07 0.0000000000000000e+00  1.0387038940390214e-06 1.6172462661976445e-07 0.0000000000000000e+00  -2.4733613520892450e-06 -5.8116044086204407e-07 0.0000000000000000e+00  2.5325782080705818e-06 1.4559168918499381e-06 0.0000000000000000e+00  0.0000000000000000e+00 0.0000000000000000e+00 0.0000000000000000e+00  0.0000000000000000e+00 0.0000000000000000e+00 0.0000000000000000e+00  -2.1852937838927859e-06 1.1955591744221743e-06 0.0000000000000000e+00  1.8081190672280945e-06 -9.6561267875992040e-08 0.0000000000000000e+00  -3.5718120410253858e-07 2.6924766986101383e-07 0.0000000000000000e+00  -1.1981412821952886e-08 -3.6683488523483733e-09 0.0000000000000000e+00  -1.5871889563179727e-07 -4.3165647617361096e-08 0.0000000000000000e+00  -2.1777122799604386e-07 -9.8090112034601186e-08 0.0000000000000000e+00  -2.3301870729833363e-07 -1.1690357449982945e-07 0.0000000000000000e+00  -2.5686288866449717e-07 -1.2031714648826913e-07 0.0000000000000000e+00  -2.6468966997746489e-07 -1.1376038071414033e-07 0.0000000000000000e+00  -2.6736321802726822e-07 -1.0127129727636998e-07 0.0000000000000000e+00  -2.6736153169531979e-07 -8.5424142521431031e-08 0.0000000000000000e+00  -2.6596437683628211e-07 -6.7739693948998384e-08 0.0000000000000000e+00  -2.6503285218046101e-07 -4.9178994027480116e-08 0.0000000000000000e+00  -2.6551438617614312e-07 -3.0318434657549149e-08 0.0000000000000000e+00  -2.6812669261606540e-07 -1.1482803045140667e-08 0.0000000000000000e+00  -2.7337722613502888e-07 7.1605343155870275e-09 0.0000000000000000e+00  -2.8160761136301059e-07 2.5506290217968266e-08 0.0000000000000000e+00  -2.9305378757903831e-07 4.3401130023190175e-08 0.0000000000000000e+00  -3.0783349834696741e-07 6.0530145844197951e-08 0.0000000000000000e+00  -3.2589282576650171e-07 7.6324661053199669e-08 0.0000000000000000e+00  -3.4691491938944730e-07 8.9929904220408317e-08 0.0000000000000000e+00  -3.7022394234500001e-07 1.0026552312001873e-07 0.0000000000000000e+00  -3.9472856707904573e-07 1.0618455899027345e-07 0.0000000000000000e+00  -4.1895416801007430e-07 1.0669599966625862e-07 0.0000000000000000e+00  -4.4116787938733076e-07 1.0118317026623223e-07 0.0000000000000000e+00  -4.5959976674414138e-07 8.9544163991776406e-08 0.0000000000000000e+00  -4.7265081719753236e-07 7.2212168280661494e-08 0.0000000000000000e+00  -4.7913082770423326e-07 5.0051519711872601e-08 0.0000000000000000e+00  -4.7826074265820054e-07 2.4188299514806863e-08 0.0000000000000000e+00  -4.6988047888784825e-07 -4.2017205462706368e-09 0.0000000000000000e+00  -4.5396474932495741e-07 -3.4006500660299704e-08 0.0000000000000000e+00  -4.3137020373040686e-07 -6.4366939242635619e-08 0.0000000000000000e+00  -4.0199638705581581e-07 -9.4475203508361421e-08 0.0000000000000000e+00  -3.6827298672792458e-07 -1.2402972414447281e-07 0.0000000000000000e+00  -3.2785675394856165e-07 -1.5207144188798193e-07 0.0000000000000000e+00  -2.8846904323458494e-07 -1.7925376228157372e-07 0.0000000000000000e+00  -2.3771180869159803e-07 -2.0258821414785516e-07 0.0000000000000000e+00  -2.0446416527350907e-07 -2.2634158064426381e-07 0.0000000000000000e+00  -1.3469715459888147e-07 -2.3836757199257712e-07 0.0000000000000000e+00  -1.4210308037388927e-07 -2.5960812161216092e-07 0.0000000000000000e+00  -5.3586715940044706e-09 -2.3997143681053702e-07 0.0000000000000000e+00  -1.7346101809153269e-07 -2.7440595963996731e-07 0.0000000000000000e+00  2.2617989463098019e-07 -1.6092583101468918e-07 0.0000000000000000e+00  -5.6083309113938410e-07 -3.0427882879135838e-07 0.0000000000000000e+00  7.3128989139686411e-07 9.4495847238793201e-08 0.0000000000000000e+00  -2.7023183905046050e-06 -5.3516292231124972e-07 0.0000000000000000e+00  2.1416482160497360e-06 1.2406724414233561e-06 0.0000000000000000e+00  0.0000000000000000e+00 0.0000000000000000e+00 0.0000000000000000e+00  0.0000000000000000e+00 0.0000000000000000e+00 0.0000000000000000e+00  -2.4352944402484271e-06 1.2374394416555260e-06 0.0000000000000000e+00  2.4266370876456459e-06 -1.2350046676648439e-07 0.0000000000000000e+00  -6.4623627664618231e-07 3.5673219493439673e-07 0.0000000000000000e+00  2.7096448119159974e-07 1.5965941961527744e-08 0.0000000000000000e+00  -1.5723921246523859e-07 3.2245367151241541e-08 0.0000000000000000e+00  -1.0523689646579535e-07 -5.6940155017945801e-08 0.0000000000000000e+00  -1.5389286148438917e-07 -8.1429714683389917e-08 0.0000000000000000e+00  -1.8870441836607176e-07 -9.8869485785550726e-08 0.0000000000000000e+00  -2.0750482483268807e-07 -1.0072391123045010e-07 0.0000000000000000e+00  -2.2486409350466113e-07 -9.4100948960498490e-08 0.0000000000000000e+00  -2.3628810384933440e-07 -8.1604750937226658e-08 0.0000000000000000e+00  -2.4489998154470255e-07 -6.5381237349718590e-08 0.0000000000000000e+00  -2.5205606727259211e-07 -4.6933947789592144e-08 0.0000000000000000e+00  -2.5864326796130736e-07 -2.7230392560236908e-08 0.0000000000000000e+00  -2.6553123510117581e-07 -6.8940227057665161e-09 0.0000000000000000e+00  -2.7328536101391256e-07 1.3715343797176102e-08 0.0000000000000000e+00  -2.8235528773515355e-07 3.4374250189461783e-08 0.0000000000000000e+00  -2.9310776145635397e-07 5.4848914981574082e-08 0.0000000000000000e+00  -3.0582412919012307e-07 7.4726885470466833e-08 0.0000000000000000e+00  -3.2064440175268583e-07 9.3263042260829264e-08 0.0000000000000000e+00  -3.3744546072343712e-07 1.0930503543752586e-07 0.0000000000000000e+00  -3.5570210937303534e-07 1.2136091086050595e-07 0.0000000000000000e+00  -3.7439573165743605e-07 1.2783013447566640e-07 0.0000000000000000e+00  -3.9204891051642745e-07 1.2734550395528482e-07 0.0000000000000000e+00  -4.0690148848494269e-07 1.1911021360312124e-07 0.0000000000000000e+00  -4.1721938955137280e-07 1.0310343209804986e-07 0.0000000000000000e+00  -4.2158158100814619e-07 8.0085031450593535e-08 0.0000000000000000e+00  -4.1916348549432318e-07 5.1407366219743848e-08 0.0000000000000000e+00  -4.0970779878076420e-07 1.8732326583976125e-08 0.0000000000000000e+00  -3.9369060142369163e-07 -1.6279961390006777e-08 0.0000000000000000e+00  -3.7170939437932159e-07 -5.2142610785935330e-08 0.0000000000000000e+00  -3.4525160337718667e-07 -8.7741148359692328e-08 0.0000000000000000e+00  -3.1463914066859071e-07 -1.2210966988312972e-07 0.0000000000000000e+00  -2.8284063934683543e-07 -1.5483299435036316e-07 0.0000000000000000e+00  -2.4752338353208770e-07 -1.8486337196173680e-07 0.0000000000000000e+00  -2.1714034069993192e-07 -2.1267721549221106e-07 0.0000000000000000e+00  -1.7840116304364551e-07 -2.3519748959614998e-07 0.0000000000000000e+00  -1.6204582277923048e-07 -2.5618927885475624e-07 0.0000000000000000e+00  -1.1044369089209388e-07 -2.6390490236189967e-07 0.0000000000000000e+00  -1.4304031540750262e-07 -2.7770862678603187e-07 0.0000000000000000e+00  -2.6436417618351455e-08 -2.5140324577042984e-07 0.0000000000000000e+00  -2.2716903241597981e-07 -2.7334304872676404e-07 0.0000000000000000e+00  1.6315889478316026e-07 -1.6206282045406969e-07 0.0000000000000000e+00  -6.5692806822822072e-07 -2.8641107796085731e-07 0.0000000000000000e+00  6.6080689715605631e-07 6.6966598835948242e-08 0.0000000000000000e+00  -2.7673158814373308e-06 -4.8666293736177154e-07 0.0000000000000000e+00  2.1212880430651045e-06 1.0782172153004936e-06 0.0000000000000000e+00  0.0000000000000000e+00 0.0000000000000000e+00 0.0000000000000000e+00  0.0000000000000000e+00 0.0000000000000000e+00 0.0000000000000000e+00  -2.3832478637373676e-06 1.1275898447068727e-06 0.0000000000000000e+00  2.6750023866735506e-06 -1.0591358204491741e-07 0.0000000000000000e+00  -7.7942659681032458e-07 3.6280841124240268e-07 0.0000000000000000e+00  4.9246577721654651e-07 3.4452355999942340e-08 0.0000000000000000e+00  -1.9131947016993967e-07 9.1596974344297010e-08 0.0000000000000000e+00  2.1506867001777796e-08 -1.7751835476779691e-08 0.0000000000000000e+00  -9.2451475331213389e-08 -3.7398543822354357e-08 0.0000000000000000e+00  -1.0827985635353793e-07 -6.7693845426674984e-08 0.0000000000000000e+00  -1.3914372314121775e-07 -7.5475486591073562e-08 0.0000000000000000e+00  -1.6566349432184916e-07 -7.5378523409668352e-08 0.0000000000000000e+00  -1.8561073801401793e-07 -6.7133258260678154e-08 0.0000000000000000e+00  -2.0304836271260455e-07 -5.3811977942774625e-08 0.0000000000000000e+00  -2.1757213811055451e-07 -3.7063923461226373e-08 0.0000000000000000e+00  -2.3032612610316864e-07 -1.8167566354013504e-08 0.0000000000000000e+00  -2.4202387636122040e-07 2.0089640868778923e-09 0.0000000000000000e+00  -2.5318969675573382e-07 2.2950437465571531e-08 0.0000000000000000e+00  -2.6431814862821017e-07 4.4351461640308610e-08 0.0000000000000000e+00  -2.7585340490591776e-07 6.5953483555881796e-08 0.0000000000000000e+00  -2.8822712809289690e-07 8.7310044677204118e-08 0.0000000000000000e+00  -3.0178372635786354e-07 1.0754441006866034e-07 0.0000000000000000e+00  -3.1660976939007814e-07 1.2519798188159215e-07 0.0000000000000000e+00  -3.3231787886577438e-07 1.3829081225570832e-07 0.0000000000000000e+00  -3.4788753507687230e-07 1.4465322776256555e-07 0.0000000000000000e+00  -3.6169612541788110e-07 1.4245165001686849e-07 0.0000000000000000e+00  -3.7178031231365887e-07 1.3070845474088269e-07 0.0000000000000000e+00  -3.7629269303780453e-07 1.0959529730942862e-07 0.0000000000000000e+00  -3.7392043391230624e-07 8.0389699396085617e-08 0.0000000000000000e+00  -3.6422598678036433e-07 4.5135026033166364e-08 0.0000000000000000e+00  -3.4755891216601162e-07 6.1785894605051550e-09 0.0000000000000000e+00  -3.2512273780361109e-07 -3.4275895442807125e-08 0.0000000000000000e+00  -2.9819856622523416e-07 -7.4397261132558348e-08 0.0000000000000000e+00  -2.6888822885942795e-07 -1.1291328248562435e-07 0.0000000000000000e+00  -2.3788050409737458e-07 -1.4882911836313776e-07 0.0000000000000000e+00  -2.0850972431769872e-07 -1.817579467