<?xml version="1.0"?>
<VTKFile type="UnstructuredGrid"  version="0.1"  >
<UnstructuredGrid>
<Piece  NumberOfPoints="1617" NumberOfCells="3072">
<Points>
<DataArray  type="Float64"  NumberOfComponents="3"  format="ascii">0 0 0  0.03125 0 0  0.0625 0 0  0.09375 0 0  0.125 0 0  0.15625 0 0  0.1875 0 0  0.21875 0 0  0.25 0 0  0.28125 0 0  0.3125 0 0  0.34375 0 0  0.375 0 0  0.40625 0 0  0.4375 0 0  0.46875 0 0  0.5 0 0  0.53125 0 0  0.5625 0 0  0.59375 0 0  0.625 0 0  0.65625 0 0  0.6875 0 0  0.71875 0 0  0.75 0 0  0.78125 0 0  0.8125 0 0  0.84375 0 0  0.875 0 0  0.90625 0 0  0.9375 0 0  0.96875 0 0  1 0 0  1.03125 0 0  1.0625 0 0  1.09375 0 0  1.125 0 0  1.15625 0 0  1.1875 0 0  1.21875 0 0  1.25 0 0  1.28125 0 0  1.3125 0 0  1.34375 0 0  1.375 0 0  1.40625 0 0  1.4375 0 0  1.46875 0 0  1.5 0 0  0 0.03125 0  0.03125 0.03125 0  0.0625 0.03125 0  0.09375 0.03125 0  0.125 0.03125 0  0.15625 0.03125 0  0.1875 0.03125 0  0.21875 0.03125 0  0.25 0.03125 0  0.28125 0.03125 0  0.3125 0.03125 0  0.34375 0.03125 0  0.375 0.03125 0  0.40625 0.03125 0  0.4375 0.03125 0  0.46875 0.03125 0  0.5 0.03125 0  0.53125 0.03125 0  0.5625 0.03125 0  0.59375 0.03125 0  0.625 0.03125 0  0.65625 0.03125 0  0.6875 0.03125 0  0.71875 0.03125 0  0.75 0.03125 0  0.78125 0.03125 0  0.8125 0.03125 0  0.84375 0.03125 0  0.875 0.03125 0  0.90625 0.03125 0  0.9375 0.03125 0  0.96875 0.03125 0  1 0.03125 0  1.03125 0.03125 0  1.0625 0.03125 0  1.09375 0.03125 0  1.125 0.03125 0  1.15625 0.03125 0  1.1875 0.03125 0  1.21875 0.03125 0  1.25 0.03125 0  1.28125 0.03125 0  1.3125 0.03125 0  1.34375 0.03125 0  1.375 0.03125 0  1.40625 0.03125 0  1.4375 0.03125 0  1.46875 0.03125 0  1.5 0.03125 0  0 0.0625 0  0.03125 0.0625 0  0.0625 0.0625 0  0.09375 0.0625 0  0.125 0.0625 0  0.15625 0.0625 0  0.1875 0.0625 0  0.21875 0.0625 0  0.25 0.0625 0  0.28125 0.0625 0  0.3125 0.0625 0  0.34375 0.0625 0  0.375 0.0625 0  0.40625 0.0625 0  0.4375 0.0625 0  0.46875 0.0625 0  0.5 0.0625 0  0.53125 0.0625 0  0.5625 0.0625 0  0.59375 0.0625 0  0.625 0.0625 0  0.65625 0.0625 0  0.6875 0.0625 0  0.71875 0.0625 0  0.75 0.0625 0  0.78125 0.0625 0  0.8125 0.0625 0  0.84375 0.0625 0  0.875 0.0625 0  0.90625 0.0625 0  0.9375 0.0625 0  0.96875 0.0625 0  1 0.0625 0  1.03125 0.0625 0  1.0625 0.0625 0  1.09375 0.0625 0  1.125 0.0625 0  1.15625 0.0625 0  1.1875 0.0625 0  1.21875 0.0625 0  1.25 0.0625 0  1.28125 0.0625 0  1.3125 0.0625 0  1.34375 0.0625 0  1.375 0.0625 0  1.40625 0.0625 0  1.4375 0.0625 0  1.46875 0.0625 0  1.5 0.0625 0  0 0.09375 0  0.03125 0.09375 0  0.0625 0.09375 0  0.09375 0.09375 0  0.125 0.09375 0  0.15625 0.09375 0  0.1875 0.09375 0  0.21875 0.09375 0  0.25 0.09375 0  0.28125 0.09375 0  0.3125 0.09375 0  0.34375 0.09375 0  0.375 0.09375 0  0.40625 0.09375 0  0.4375 0.09375 0  0.46875 0.09375 0  0.5 0.09375 0  0.53125 0.09375 0  0.5625 0.09375 0  0.59375 0.09375 0  0.625 0.09375 0  0.65625 0.09375 0  0.6875 0.09375 0  0.71875 0.09375 0  0.75 0.09375 0  0.78125 0.09375 0  0.8125 0.09375 0  0.84375 0.09375 0  0.875 0.09375 0  0.90625 0.09375 0  0.9375 0.09375 0  0.96875 0.09375 0  1 0.09375 0  1.03125 0.09375 0  1.0625 0.09375 0  1.09375 0.09375 0  1.125 0.09375 0  1.15625 0.09375 0  1.1875 0.09375 0  1.21875 0.09375 0  1.25 0.09375 0  1.28125 0.09375 0  1.3125 0.09375 0  1.34375 0.09375 0  1.375 0.09375 0  1.40625 0.09375 0  1.4375 0.09375 0  1.46875 0.09375 0  1.5 0.09375 0  0 0.125 0  0.03125 0.125 0  0.0625 0.125 0  0.09375 0.125 0  0.125 0.125 0  0.15625 0.125 0  0.1875 0.125 0  0.21875 0.125 0  0.25 0.125 0  0.28125 0.125 0  0.3125 0.125 0  0.34375 0.125 0  0.375 0.125 0  0.40625 0.125 0  0.4375 0.125 0  0.46875 0.125 0  0.5 0.125 0  0.53125 0.125 0  0.5625 0.125 0  0.59375 0.125 0  0.625 0.125 0  0.65625 0.125 0  0.6875 0.125 0  0.71875 0.125 0  0.75 0.125 0  0.78125 0.125 0  0.8125 0.125 0  0.84375 0.125 0  0.875 0.125 0  0.90625 0.125 0  0.9375 0.125 0  0.96875 0.125 0  1 0.125 0  1.03125 0.125 0  1.0625 0.125 0  1.09375 0.125 0  1.125 0.125 0  1.15625 0.125 0  1.1875 0.125 0  1.21875 0.125 0  1.25 0.125 0  1.28125 0.125 0  1.3125 0.125 0  1.34375 0.125 0  1.375 0.125 0  1.40625 0.125 0  1.4375 0.125 0  1.46875 0.125 0  1.5 0.125 0  0 0.15625 0  0.03125 0.15625 0  0.0625 0.15625 0  0.09375 0.15625 0  0.125 0.15625 0  0.15625 0.15625 0  0.1875 0.15625 0  0.21875 0.15625 0  0.25 0.15625 0  0.28125 0.15625 0  0.3125 0.15625 0  0.34375 0.15625 0  0.375 0.15625 0  0.40625 0.15625 0  0.4375 0.15625 0  0.46875 0.15625 0  0.5 0.15625 0  0.53125 0.15625 0  0.5625 0.15625 0  0.59375 0.15625 0  0.625 0.15625 0  0.65625 0.15625 0  0.6875 0.15625 0  0.71875 0.15625 0  0.75 0.15625 0  0.78125 0.15625 0  0.8125 0.15625 0  0.84375 0.15625 0  0.875 0.15625 0  0.90625 0.15625 0  0.9375 0.15625 0  0.96875 0.15625 0  1 0.15625 0  1.03125 0.15625 0  1.0625 0.15625 0  1.09375 0.15625 0  1.125 0.15625 0  1.15625 0.15625 0  1.1875 0.15625 0  1.21875 0.15625 0  1.25 0.15625 0  1.28125 0.15625 0  1.3125 0.15625 0  1.34375 0.15625 0  1.375 0.15625 0  1.40625 0.15625 0  1.4375 0.15625 0  1.46875 0.15625 0  1.5 0.15625 0  0 0.1875 0  0.03125 0.1875 0  0.0625 0.1875 0  0.09375 0.1875 0  0.125 0.1875 0  0.15625 0.1875 0  0.1875 0.1875 0  0.21875 0.1875 0  0.25 0.1875 0  0.28125 0.1875 0  0.3125 0.1875 0  0.34375 0.1875 0  0.375 0.1875 0  0.40625 0.1875 0  0.4375 0.1875 0  0.46875 0.1875 0  0.5 0.1875 0  0.53125 0.1875 0  0.5625 0.1875 0  0.59375 0.1875 0  0.625 0.1875 0  0.65625 0.1875 0  0.6875 0.1875 0  0.71875 0.1875 0  0.75 0.1875 0  0.78125 0.1875 0  0.8125 0.1875 0  0.84375 0.1875 0  0.875 0.1875 0  0.90625 0.1875 0  0.9375 0.1875 0  0.96875 0.1875 0  1 0.1875 0  1.03125 0.1875 0  1.0625 0.1875 0  1.09375 0.1875 0  1.125 0.1875 0  1.15625 0.1875 0  1.1875 0.1875 0  1.21875 0.1875 0  1.25 0.1875 0  1.28125 0.1875 0  1.3125 0.1875 0  1.34375 0.1875 0  1.375 0.1875 0  1.40625 0.1875 0  1.4375 0.1875 0  1.46875 0.1875 0  1.5 0.1875 0  0 0.21875 0  0.03125 0.21875 0  0.0625 0.21875 0  0.09375 0.21875 0  0.125 0.21875 0  0.15625 0.21875 0  0.1875 0.21875 0  0.21875 0.21875 0  0.25 0.21875 0  0.28125 0.21875 0  0.3125 0.21875 0  0.34375 0.21875 0  0.375 0.21875 0  0.40625 0.21875 0  0.4375 0.21875 0  0.46875 0.21875 0  0.5 0.21875 0  0.53125 0.21875 0  0.5625 0.21875 0  0.59375 0.21875 0  0.625 0.21875 0  0.65625 0.21875 0  0.6875 0.21875 0  0.71875 0.21875 0  0.75 0.21875 0  0.78125 0.21875 0  0.8125 0.21875 0  0.84375 0.21875 0  0.875 0.21875 0  0.90625 0.21875 0  0.9375 0.21875 0  0.96875 0.21875 0  1 0.21875 0  1.03125 0.21875 0  1.0625 0.21875 0  1.09375 0.21875 0  1.125 0.21875 0  1.15625 0.21875 0  1.1875 0.21875 0  1.21875 0.21875 0  1.25 0.21875 0  1.28125 0.21875 0  1.3125 0.21875 0  1.34375 0.21875 0  1.375 0.21875 0  1.40625 0.21875 0  1.4375 0.21875 0  1.46875 0.21875 0  1.5 0.21875 0  0 0.25 0  0.03125 0.25 0  0.0625 0.25 0  0.09375 0.25 0  0.125 0.25 0  0.15625 0.25 0  0.1875 0.25 0  0.21875 0.25 0  0.25 0.25 0  0.28125 0.25 0  0.3125 0.25 0  0.34375 0.25 0  0.375 0.25 0  0.40625 0.25 0  0.4375 0.25 0  0.46875 0.25 0  0.5 0.25 0  0.53125 0.25 0  0.5625 0.25 0  0.59375 0.25 0  0.625 0.25 0  0.65625 0.25 0  0.6875 0.25 0  0.71875 0.25 0  0.75 0.25 0  0.78125 0.25 0  0.8125 0.25 0  0.84375 0.25 0  0.875 0.25 0  0.90625 0.25 0  0.9375 0.25 0  0.96875 0.25 0  1 0.25 0  1.03125 0.25 0  1.0625 0.25 0  1.09375 0.25 0  1.125 0.25 0  1.15625 0.25 0  1.1875 0.25 0  1.21875 0.25 0  1.25 0.25 0  1.28125 0.25 0  1.3125 0.25 0  1.34375 0.25 0  1.375 0.25 0  1.40625 0.25 0  1.4375 0.25 0  1.46875 0.25 0  1.5 0.25 0  0 0.28125 0  0.03125 0.28125 0  0.0625 0.28125 0  0.09375 0.28125 0  0.125 0.28125 0  0.15625 0.28125 0  0.1875 0.28125 0  0.21875 0.28125 0  0.25 0.28125 0  0.28125 0.28125 0  0.3125 0.28125 0  0.34375 0.28125 0  0.375 0.28125 0  0.40625 0.28125 0  0.4375 0.28125 0  0.46875 0.28125 0  0.5 0.28125 0  0.53125 0.28125 0  0.5625 0.28125 0  0.59375 0.28125 0  0.625 0.28125 0  0.65625 0.28125 0  0.6875 0.28125 0  0.71875 0.28125 0  0.75 0.28125 0  0.78125 0.28125 0  0.8125 0.28125 0  0.84375 0.28125 0  0.875 0.28125 0  0.90625 0.28125 0  0.9375 0.28125 0  0.96875 0.28125 0  1 0.28125 0  1.03125 0.28125 0  1.0625 0.28125 0  1.09375 0.28125 0  1.125 0.28125 0  1.15625 0.28125 0  1.1875 0.28125 0  1.21875 0.28125 0  1.25 0.28125 0  1.28125 0.28125 0  1.3125 0.28125 0  1.34375 0.28125 0  1.375 0.28125 0  1.40625 0.28125 0  1.4375 0.28125 0  1.46875 0.28125 0  1.5 0.28125 0  0 0.3125 0  0.03125 0.3125 0  0.0625 0.3125 0  0.09375 0.3125 0  0.125 0.3125 0  0.15625 0.3125 0  0.1875 0.3125 0  0.21875 0.3125 0  0.25 0.3125 0  0.28125 0.3125 0  0.3125 0.3125 0  0.34375 0.3125 0  0.375 0.3125 0  0.40625 0.3125 0  0.4375 0.3125 0  0.46875 0.3125 0  0.5 0.3125 0  0.53125 0.3125 0  0.5625 0.3125 0  0.59375 0.3125 0  0.625 0.3125 0  0.65625 0.3125 0  0.6875 0.3125 0  0.71875 0.3125 0  0.75 0.3125 0  0.78125 0.3125 0  0.8125 0.3125 0  0.84375 0.3125 0  0.875 0.3125 0  0.90625 0.3125 0  0.9375 0.3125 0  0.96875 0.3125 0  1 0.3125 0  1.03125 0.3125 0  1.0625 0.3125 0  1.09375 0.3125 0  1.125 0.3125 0  1.15625 0.3125 0  1.1875 0.3125 0  1.21875 0.3125 0  1.25 0.3125 0  1.28125 0.3125 0  1.3125 0.3125 0  1.34375 0.3125 0  1.375 0.3125 0  1.40625 0.3125 0  1.4375 0.3125 0  1.46875 0.3125 0  1.5 0.3125 0  0 0.34375 0  0.03125 0.34375 0  0.0625 0.34375 0  0.09375 0.34375 0  0.125 0.34375 0  0.15625 0.34375 0  0.1875 0.34375 0  0.21875 0.34375 0  0.25 0.34375 0  0.28125 0.34375 0  0.3125 0.34375 0  0.34375 0.34375 0  0.375 0.34375 0  0.40625 0.34375 0  0.4375 0.34375 0  0.46875 0.34375 0  0.5 0.34375 0  0.53125 0.34375 0  0.5625 0.34375 0  0.59375 0.34375 0  0.625 0.34375 0  0.65625 0.34375 0  0.6875 0.34375 0  0.71875 0.34375 0  0.75 0.34375 0  0.78125 0.34375 0  0.8125 0.34375 0  0.84375 0.34375 0  0.875 0.34375 0  0.90625 0.34375 0  0.9375 0.34375 0  0.96875 0.34375 0  1 0.34375 0  1.03125 0.34375 0  1.0625 0.34375 0  1.09375 0.34375 0  1.125 0.34375 0  1.15625 0.34375 0  1.1875 0.34375 0  1.21875 0.34375 0  1.25 0.34375 0  1.28125 0.34375 0  1.3125 0.34375 0  1.34375 0.34375 0  1.375 0.34375 0  1
[...]
<PointData  Vectors="f_17"> 
<DataArray  type="Float64"  Name="f_17"  NumberOfComponents="3" format="ascii">0.0000000000000000e+00 0.0000000000000000e+00 0.0000000000000000e+00  0.0000000000000000e+00 0.0000000000000000e+00 0.0000000000000000e+00  0.0000000000000000e+00 0.0000000000000000e+00 0.0000000000000000e+00  0.0000000000000000e+00 0.0000000000000000e+00 0.0000000000000000e+00  0.0000000000000000e+00 0.0000000000000000e+00 0.0000000000000000e+00  0.0000000000000000e+00 0.0000000000000000e+00 0.0000000000000000e+00  0.0000000000000000e+00 0.0000000000000000e+00 0.0000000000000000e+00  0.0000000000000000e+00 0.0000000000000000e+00 0.0000000000000000e+00  0.0000000000000000e+00 0.0000000000000000e+00 0.0000000000000000e+00  0.0000000000000000e+00 0.0000000000000000e+00 0.0000000000000000e+00  0.0000000000000000e+00 0.0000000000000000e+00 0.0000000000000000e+00  0.0000000000000000e+00 0.0000000000000000e+00 0.0000000000000000e+00  0.0000000000000000e+00 0.0000000000000000e+00 0.0000000000000000e+00  0.0000000000000000e+00 0.0000000000000000e+00 0.0000000000000000e+00  0.0000000000000000e+00 0.0000000000000000e+00 0.0000000000000000e+00  0.0000000000000000e+00 0.0000000000000000e+00 0.0000000000000000e+00  0.0000000000000000e+00 0.0000000000000000e+00 0.0000000000000000e+00  0.0000000000000000e+00 0.0000000000000000e+00 0.0000000000000000e+00  0.0000000000000000e+00 0.0000000000000000e+00 0.0000000000000000e+00  0.0000000000000000e+00 0.0000000000000000e+00 0.0000000000000000e+00  0.0000000000000000e+00 0.0000000000000000e+00 0.0000000000000000e+00  0.0000000000000000e+00 0.0000000000000000e+00 0.0000000000000000e+00  0.0000000000000000e+00 0.0000000000000000e+00 0.0000000000000000e+00  0.0000000000000000e+00 0.0000000000000000e+00 0.0000000000000000e+00  0.0000000000000000e+00 0.0000000000000000e+00 0.0000000000000000e+00  0.0000000000000000e+00 0.0000000000000000e+00 0.0000000000000000e+00  0.0000000000000000e+00 0.0000000000000000e+00 0.0000000000000000e+00  0.0000000000000000e+00 0.0000000000000000e+00 0.0000000000000000e+00  0.0000000000000000e+00 0.0000000000000000e+00 0.0000000000000000e+00  0.0000000000000000e+00 0.0000000000000000e+00 0.0000000000000000e+00  0.0000000000000000e+00 0.0000000000000000e+00 0.0000000000000000e+00  0.0000000000000000e+00 0.0000000000000000e+00 0.0000000000000000e+00  0.0000000000000000e+00 0.0000000000000000e+00 0.0000000000000000e+00  0.0000000000000000e+00 0.0000000000000000e+00 0.0000000000000000e+00  0.0000000000000000e+00 0.0000000000000000e+00 0.0000000000000000e+00  0.0000000000000000e+00 0.0000000000000000e+00 0.0000000000000000e+00  0.0000000000000000e+00 0.0000000000000000e+00 0.0000000000000000e+00  0.0000000000000000e+00 0.0000000000000000e+00 0.0000000000000000e+00  0.0000000000000000e+00 0.0000000000000000e+00 0.0000000000000000e+00  0.0000000000000000e+00 0.0000000000000000e+00 0.0000000000000000e+00  0.0000000000000000e+00 0.0000000000000000e+00 0.0000000000000000e+00  0.0000000000000000e+00 0.0000000000000000e+00 0.0000000000000000e+00  0.0000000000000000e+00 0.0000000000000000e+00 0.0000000000000000e+00  0.0000000000000000e+00 0.0000000000000000e+00 0.0000000000000000e+00  0.0000000000000000e+00 0.0000000000000000e+00 0.0000000000000000e+00  0.0000000000000000e+00 0.0000000000000000e+00 0.0000000000000000e+00  0.0000000000000000e+00 0.0000000000000000e+00 0.0000000000000000e+00  0.0000000000000000e+00 0.0000000000000000e+00 0.0000000000000000e+00  0.0000000000000000e+00 0.0000000000000000e+00 0.0000000000000000e+00  0.0000000000000000e+00 0.0000000000000000e+00 0.0000000000000000e+00  -5.1021285170570637e-08 -3.4377817800625200e-08 0.0000000000000000e+00  -1.1491373326077486e-07 1.0300176663399553e-07 0.0000000000000000e+00  -2.6976643668520994e-08 -7.0020724812462542e-09 0.0000000000000000e+00  -2.1929385972639761e-07 -4.0401744549781383e-08 0.0000000000000000e+00  -2.0827267712312007e-07 -6.7296698557923556e-08 0.0000000000000000e+00  -2.0206441571242975e-07 -7.3404556671179953e-08 0.0000000000000000e+00  -1.9924680149332147e-07 -6.7382494437447895e-08 0.0000000000000000e+00  -1.8500377102793011e-07 -5.8688576219123348e-08 0.0000000000000000e+00  -1.7130885966224787e-07 -4.8778195355407091e-08 0.0000000000000000e+00  -1.5846410106895529e-07 -3.8851384197739952e-08 0.0000000000000000e+00  -1.4786161740583730e-07 -2.9361799760688480e-08 0.0000000000000000e+00  -1.4080680694634548e-07 -2.0405504605792807e-08 0.0000000000000000e+00  -1.3778460734203819e-07 -1.2006969308101536e-08 0.0000000000000000e+00  -1.3916139404081297e-07 -4.1178363800504757e-09 0.0000000000000000e+00  -1.4515142871721839e-07 3.3469376238317113e-09 0.0000000000000000e+00  -1.5588704631778633e-07 1.0479772705008174e-08 0.0000000000000000e+00  -1.7146664855495275e-07 1.7350042928924543e-08 0.0000000000000000e+00  -1.9194505211806124e-07 2.3969293620992764e-08 0.0000000000000000e+00  -2.1729585459799752e-07 3.0258954309789044e-08 0.0000000000000000e+00  -2.4734321165071521e-07 3.6030184734042284e-08 0.0000000000000000e+00  -2.8167754013850232e-07 4.0986242838104093e-08 0.0000000000000000e+00  -3.1957962579815324e-07 4.4753989615099184e-08 0.0000000000000000e+00  -3.5997672544114609e-07 4.6942434362463911e-08 0.0000000000000000e+00  -4.0145745863261623e-07 4.7215844926977307e-08 0.0000000000000000e+00  -4.4234306898063549e-07 4.5361938826281229e-08 0.0000000000000000e+00  -4.8082554812398894e-07 4.1334879034302694e-08 0.0000000000000000e+00  -5.1510228646313240e-07 3.5263342941598001e-08 0.0000000000000000e+00  -5.4356304853403116e-07 2.7418579237699415e-08 0.0000000000000000e+00  -5.6481504857543441e-07 1.8167560142914270e-08 0.0000000000000000e+00  -5.7791300439724390e-07 7.8938956501653121e-09 0.0000000000000000e+00  -5.8200166372563014e-07 -3.0163410824713901e-09 0.0000000000000000e+00  -5.7702574873605655e-07 -1.4304811312879125e-08 0.0000000000000000e+00  -5.6212047494232630e-07 -2.5641067878329848e-08 0.0000000000000000e+00  -5.3876081579722093e-07 -3.7106149007198952e-08 0.0000000000000000e+00  -5.0405625061354692e-07 -4.8073842220562185e-08 0.0000000000000000e+00  -4.6447834036369641e-07 -5.9629017937190677e-08 0.0000000000000000e+00  -4.0745236518849724e-07 -6.9104191715812138e-08 0.0000000000000000e+00  -3.5986169516339647e-07 -8.1918504934667513e-08 0.0000000000000000e+00  -2.6804005556648531e-07 -8.5604716004992432e-08 0.0000000000000000e+00  -2.4333354358564481e-07 -1.0556874077815897e-07 0.0000000000000000e+00  -6.2511930921230104e-08 -8.5339071240283858e-08 0.0000000000000000e+00  -1.7975612210597224e-07 -1.3938611165636618e-07 0.0000000000000000e+00  3.0648561589133485e-07 -2.2360540106399871e-08 0.0000000000000000e+00  -4.3074445496758931e-07 -2.3065055406321313e-07 0.0000000000000000e+00  1.1220044064891356e-06 2.3694637516249657e-07 0.0000000000000000e+00  -2.4787166653532931e-06 -7.5590608932274231e-07 0.0000000000000000e+00  2.9273296384246558e-06 1.3325650755663633e-06 0.0000000000000000e+00  0.0000000000000000e+00 0.0000000000000000e+00 0.0000000000000000e+00  0.0000000000000000e+00 0.0000000000000000e+00 0.0000000000000000e+00  -1.4378713158645890e-06 6.0424980013581114e-07 0.0000000000000000e+00  8.0341616124539707e-07 -5.1974821669349032e-08 0.0000000000000000e+00  -6.4445269334099456e-08 9.9728021126391201e-08 0.0000000000000000e+00  -2.1742342557263224e-07 -1.0098080843945654e-08 0.0000000000000000e+00  -2.2698236850920352e-07 -5.8603089364646497e-08 0.0000000000000000e+00  -2.8610946061388338e-07 -8.0811503856548760e-08 0.0000000000000000e+00  -2.8797510986134326e-07 -8.6758706475303057e-08 0.0000000000000000e+00  -2.8055989566458285e-07 -8.3595836701908149e-08 0.0000000000000000e+00  -2.6912726361929167e-07 -7.5033988024095101e-08 0.0000000000000000e+00  -2.5478741163281186e-07 -6.3600785453789116e-08 0.0000000000000000e+00  -2.4208910645579193e-07 -5.0622946526317652e-08 0.0000000000000000e+00  -2.3223297415824457e-07 -3.6928156930010910e-08 0.0000000000000000e+00  -2.2617964135179237e-07 -2.3019049088561287e-08 0.0000000000000000e+00  -2.2454893386141859e-07 -9.1590259652320284e-09 0.0000000000000000e+00  -2.2763862009859367e-07 4.5429085554318282e-09 0.0000000000000000e+00  -2.3563465838062324e-07 1.8062750383795996e-08 0.0000000000000000e+00  -2.4864056978650078e-07 3.1389782737480209e-08 0.0000000000000000e+00  -2.6669676277305111e-07 4.4447315937682405e-08 0.0000000000000000e+00  -2.8975464218595281e-07 5.7016311095827990e-08 0.0000000000000000e+00  -3.1760616013103218e-07 6.8680326245990976e-08 0.0000000000000000e+00  -3.4978847539382573e-07 7.8814725344321477e-08 0.0000000000000000e+00  -3.8549210631833982e-07 8.6637710389763340e-08 0.0000000000000000e+00  -4.2350655163506379e-07 9.1322815259764776e-08 0.0000000000000000e+00  -4.6224124291089324e-07 9.2148848872493836e-08 0.0000000000000000e+00  -4.9982190076609259e-07 8.8645354135406341e-08 0.0000000000000000e+00  -5.3427089383079150e-07 8.0688579608429441e-08 0.0000000000000000e+00  -5.6368190316635399e-07 6.8522414095517049e-08 0.0000000000000000e+00  -5.8644172603156401e-07 5.2697580070118828e-08 0.0000000000000000e+00  -6.0125365902270641e-07 3.3967870035485375e-08 0.0000000000000000e+00  -6.0737118717116311e-07 1.3143905464755976e-08 0.0000000000000000e+00  -6.0418008191751364e-07 -8.9771091843938745e-09 0.0000000000000000e+00  -5.9193855467350384e-07 -3.1779275879614481e-08 0.0000000000000000e+00  -5.7003639772493457e-07 -5.4640753004097499e-08 0.0000000000000000e+00  -5.4032975178235104e-07 -7.7401436070514857e-08 0.0000000000000000e+00  -5.0010049714719166e-07 -9.9249530016033415e-08 0.0000000000000000e+00  -4.5638269024631282e-07 -1.2100907517757797e-07 0.0000000000000000e+00  -3.9663068596771203e-07 -1.3990985028351352e-07 0.0000000000000000e+00  -3.4873155327121687e-07 -1.6065209212793278e-07 0.0000000000000000e+00  -2.5896820882995328e-07 -1.7122957580264749e-07 0.0000000000000000e+00  -2.4005347033494904e-07 -1.9416083035928857e-07 0.0000000000000000e+00  -6.9955058586200525e-08 -1.7735554986911292e-07 0.0000000000000000e+00  -2.0186427777163117e-07 -2.2309565806626260e-07 0.0000000000000000e+00  2.5443962721472557e-07 -1.1177139826673522e-07 0.0000000000000000e+00  -5.0237110508164217e-07 -2.8881899934929837e-07 0.0000000000000000e+00  9.3879673618258063e-07 1.3665885123054540e-07 0.0000000000000000e+00  -2.4902557805274044e-06 -6.3872682383098159e-07 0.0000000000000000e+00  2.8541154519467458e-06 1.3365593507322989e-06 0.0000000000000000e+00  0.0000000000000000e+00 0.0000000000000000e+00 0.0000000000000000e+00  0.0000000000000000e+00 0.0000000000000000e+00 0.0000000000000000e+00  -2.5322752514291912e-06 1.0657824058668650e-06 0.0000000000000000e+00  1.7428512759899766e-06 -1.6757273158225835e-07 0.0000000000000000e+00  -3.5233994845937822e-07 2.4420861907161484e-07 0.0000000000000000e+00  5.1331841943490933e-08 3.2584228806041587e-09 0.0000000000000000e+00  -8.6767069563225768e-08 -1.9222101934414131e-08 0.0000000000000000e+00  -1.4262644453380916e-07 -6.7732211056941696e-08 0.0000000000000000e+00  -1.5942218093485581e-07 -8.4633620667051998e-08 0.0000000000000000e+00  -1.8763363214992445e-07 -8.8345064873055118e-08 0.0000000000000000e+00  -2.0111189621793967e-07 -8.2826465665535408e-08 0.0000000000000000e+00  -2.1000745153659551e-07 -7.1582095924722477e-08 0.0000000000000000e+00  -2.1644125351697736e-07 -5.7014633256105636e-08 0.0000000000000000e+00  -2.2151605153877961e-07 -4.0613269016613305e-08 0.0000000000000000e+00  -2.2697950095247994e-07 -2.3331853763424359e-08 0.0000000000000000e+00  -2.3369985039201695e-07 -5.7245127609025508e-09 0.0000000000000000e+00  -2.4234353183710877e-07 1.1926722063058177e-08 0.0000000000000000e+00  -2.5339531309125872e-07 2.9510187250930243e-08 0.0000000000000000e+00  -2.6720299433721448e-07 4.6977524152205600e-08 0.0000000000000000e+00  -2.8403497928262281e-07 6.4220894968697427e-08 0.0000000000000000e+00  -3.0406135302559206e-07 8.0947501150223736e-08 0.0000000000000000e+00  -3.2728967843180195e-07 9.6578335928869939e-08 0.0000000000000000e+00  -3.5345958215144373e-07 1.1021268027929049e-07 0.0000000000000000e+00  -3.8193206760728722e-07 1.2069392191363069e-07 0.0000000000000000e+00  -4.1162250763795040e-07 1.2678266270898230e-07 0.0000000000000000e+00  -4.4103103397860037e-07 1.2739906941006686e-07 0.0000000000000000e+00  -4.6837642633071985e-07 1.2186076517977531e-07 0.0000000000000000e+00  -4.9183422987115461e-07 1.1003632949174418e-07 0.0000000000000000e+00  -5.0976367168707947e-07 9.2368759675473065e-08 0.0000000000000000e+00  -5.2095954593540217e-07 6.9765022871885453e-08 0.0000000000000000e+00  -5.2465964387504175e-07 4.3413753999012249e-08 0.0000000000000000e+00  -5.2074818327344736e-07 1.4558186530179445e-08 0.0000000000000000e+00  -5.0926126117562902e-07 -1.5630744639478671e-08 0.0000000000000000e+00  -4.9112001320780727e-07 -4.6253414782240469e-08 0.0000000000000000e+00  -4.6627968543964577e-07 -7.6485282282833503e-08 0.0000000000000000e+00  -4.3720485994593460e-07 -1.0603361721056206e-07 0.0000000000000000e+00  -4.0156314978266283e-07 -1.3397291421714829e-07 0.0000000000000000e+00  -3.6706093720459707e-07 -1.6101458459294976e-07 0.0000000000000000e+00  -3.2127137143914181e-07 -1.8425535100412199e-07 0.0000000000000000e+00  -2.9306466528910128e-07 -2.0809331021652517e-07 0.0000000000000000e+00  -2.2837797858216673e-07 -2.2059330562944823e-07 0.0000000000000000e+00  -2.4101580970039134e-07 -2.4309760166220801e-07 0.0000000000000000e+00  -1.0900302031916602e-07 -2.2620100894303916e-07 0.0000000000000000e+00  -2.8166052756084714e-07 -2.6620227931736069e-07 0.0000000000000000e+00  1.1959932264407230e-07 -1.6304126110973352e-07 0.0000000000000000e+00  -6.6566138308411104e-07 -3.2458654615604188e-07 0.0000000000000000e+00  6.9420227512678818e-07 4.5668731827415685e-08 0.0000000000000000e+00  -2.6592859139582375e-06 -6.2020143232231469e-07 0.0000000000000000e+00  2.4960617430243187e-06 1.1044646106310799e-06 0.0000000000000000e+00  0.0000000000000000e+00 0.0000000000000000e+00 0.0000000000000000e+00  0.0000000000000000e+00 0.0000000000000000e+00 0.0000000000000000e+00  -2.7956628900402150e-06 1.1088269425529939e-06 0.0000000000000000e+00  2.3444006270085078e-06 -2.0736128823678977e-07 0.0000000000000000e+00  -6.7168580156220045e-07 3.1134653780383710e-07 0.0000000000000000e+00  3.0359209444675626e-07 4.9493901982458416e-09 0.0000000000000000e+00  -1.1900656485574989e-07 4.3956750757257428e-08 0.0000000000000000e+00  -5.9794781640534507e-08 -3.2790277695702104e-08 0.0000000000000000e+00  -1.0594821605699058e-07 -5.0768322819897908e-08 0.0000000000000000e+00  -1.4071369793327354e-07 -6.5440467877639062e-08 0.0000000000000000e+00  -1.6121212077621820e-07 -6.6404319199915680e-08 0.0000000000000000e+00  -1.8144576277269348e-07 -5.9906842334809867e-08 0.0000000000000000e+00  -1.9654202426315627e-07 -4.8088530089782313e-08 0.0000000000000000e+00  -2.0935514554622752e-07 -3.2873600787969954e-08 0.0000000000000000e+00  -2.2102490254940039e-07 -1.5637584759159447e-08 0.0000000000000000e+00  -2.3227169968694126e-07 2.7501725288525240e-09 0.0000000000000000e+00  -2.4384427461475474e-07 2.1760992827085959e-08 0.0000000000000000e+00  -2.5623134906912274e-07 4.1131316705663275e-08 0.0000000000000000e+00  -2.6984679115699518e-07 6.0729393003151423e-08 0.0000000000000000e+00  -2.8505739604370236e-07 8.0396533980248454e-08 0.0000000000000000e+00  -3.0217190297088163e-07 9.9763964037436270e-08 0.0000000000000000e+00  -3.2137149681708843e-07 1.1808540281888534e-07 0.0000000000000000e+00  -3.4256949390777356e-07 1.3415609712447791e-07 0.0000000000000000e+00  -3.6525245082411299e-07 1.4638658611666831e-07 0.0000000000000000e+00  -3.8837452051163772e-07 1.5305418607386914e-07 0.0000000000000000e+00  -4.1039111195083929e-07 1.5267490159763867e-07 0.0000000000000000e+00  -4.2945068678915145e-07 1.4436976479372623e-07 0.0000000000000000e+00  -4.4373124795064185e-07 1.2808849585489878e-07 0.0000000000000000e+00  -4.5175561653723419e-07 1.0461593394156373e-07 0.0000000000000000e+00  -4.5269213697090038e-07 7.5370935939023726e-08 0.0000000000000000e+00  -4.4632651322323178e-07 4.2102375682902062e-08 0.0000000000000000e+00  -4.3321442578956664e-07 6.5557607640410418e-09 0.0000000000000000e+00  -4.1404904145900985e-07 -2.9716237414515517e-08 0.0000000000000000e+00  -3.9040717153123029e-07 -6.5564747844105390e-08 0.0000000000000000e+00  -3.6267686876118159e-07 -1.0002672612251907e-07 0.0000000000000000e+00  -3.3385480110404872e-07 -1.3272906437476614e-07 0.0000000000000000e+00  -3.0159427375985947e-07 -1.6270597953127972e-07 0.0000000000000000e+00  -2.7428843659536103e-07 -1.9055937025313966e-07 0.0000000000000000e+00  -2.3855247440398257e-07 -2.1339144262544275e-07 0.0000000000000000e+00  -2.2502638712010042e-07 -2.3522810669182425e-07 0.0000000000000000e+00  -1.7593229193709819e-07 -2.4470651898550943e-07 0.0000000000000000e+00  -2.1070830343970790e-07 -2.6179707247209963e-07 0.0000000000000000e+00  -9.5226996232755424e-08 -2.4118949499064349e-07 0.0000000000000000e+00  -2.9649007998437431e-07 -2.7263400568986079e-07 0.0000000000000000e+00  9.9363039110515416e-08 -1.7629621675365529e-07 0.0000000000000000e+00  -7.1692016894300312e-07 -3.2302349544541896e-07 0.0000000000000000e+00  6.6586432520876125e-07 -5.7637240640212509e-12 0.0000000000000000e+00  -2.6931525730671364e-06 -5.8687760827779793e-07 0.0000000000000000e+00  2.4882527018683835e-06 9.3773976525678489e-07 0.0000000000000000e+00  0.0000000000000000e+00 0.0000000000000000e+00 0.0000000000000000e+00  0.0000000000000000e+00 0.0000000000000000e+00 0.0000000000000000e+00  -2.7483318778486067e-06 1.0066399456956385e-06 0.0000000000000000e+00  2.5834802341124839e-06 -1.9270764020563104e-07 0.0000000000000000e+00  -8.2137047867520918e-07 3.0542594152900294e-07 0.0000000000000000e+00  5.0390303091403594e-07 9.0621535656465916e-09 0.0000000000000000e+00  -1.7866951913603667e-07 9.0451477958329758e-08 0.0000000000000000e+00  4.1452942702393464e-08 -2.6529676840612399e-09 0.0000000000000000e+00  -6.9013145382462938e-08 -1.2027379973928650e-08 0.0000000000000000e+00  -8.2251848400495791e-08 -3.6445998528095139e-08 0.0000000000000000e+00  -1.1200892466943454e-07 -4.1033224844306619e-08 0.0000000000000000e+00  -1.3863605203982844e-07 -3.9481969243450520e-08 0.0000000000000000e+00  -1.5974559282091414e-07 -3.0878741844145652e-08 0.0000000000000000e+00  -1.7917917190153518e-07 -1.7923745026876806e-08 0.0000000000000000e+00  -1.9630807173688399e-07 -2.0200602253703000e-09 0.0000000000000000e+00  -2.1207647281242582e-07 1.5736034364878226e-08 0.0000000000000000e+00  -2.2703768343229342e-07 3.4633164690706038e-08 0.0000000000000000e+00  -2.4160167495474486e-07 5.4301680904478671e-08 0.0000000000000000e+00  -2.5619403155727815e-07 7.4570545268403609e-08 0.0000000000000000e+00  -2.7123167511851247e-07 9.5293464666480047e-08 0.0000000000000000e+00  -2.8715244744281507e-07 1.1609596651915960e-07 0.0000000000000000e+00  -3.0432455459961729e-07 1.3611314362298343e-07 0.0000000000000000e+00  -3.2285156990994985e-07 1.5382587639312225e-07 0.0000000000000000e+00  -3.4232773498646585e-07 1.6712776351111916e-07 0.0000000000000000e+00  -3.6165744546579911e-07 1.7368688181872257e-07 0.0000000000000000e+00  -3.7908626570760131e-07 1.7151815410032286e-07 0.0000000000000000e+00  -3.9249026138172777e-07 1.5954773120592490e-07 0.0000000000000000e+00  -3.9987973418363594e-07 1.3793041337786548e-07 0.0000000000000000e+00  -3.9986253452001736e-07 1.0800260973281090e-07 0.0000000000000000e+00  -3.9200650803929779e-07 7.1916847744778186e-08 0.0000000000000000e+00  -3.7674377707940501e-07 3.2145299238792147e-08 0.0000000000000000e+00  -3.5540854741505403e-07 -8.9996261851511480e-09 0.0000000000000000e+00  -3.2942522342477298e-07 -4.9616706891611390e-08 0.0000000000000000e+00  -3.0101919637752902e-07 -8.8414249012748895e-08 0.0000000000000000e+00  -2.7096205462420735e-07 -1.2443235131897978e-07 0.0000000000000000e+00  -2.4261531040575924e-07 -1.573732959357647