<?xml version="1.0"?>
<VTKFile type="UnstructuredGrid"  version="0.1"  >
<UnstructuredGrid>
<Piece  NumberOfPoints="1617" NumberOfCells="3072">
<Points>
<DataArray  type="Float64"  NumberOfComponents="3"  format="ascii">0 0 0  0.03125 0 0  0.0625 0 0  0.09375 0 0  0.125 0 0  0.15625 0 0  0.1875 0 0  0.21875 0 0  0.25 0 0  0.28125 0 0  0.3125 0 0  0.34375 0 0  0.375 0 0  0.40625 0 0  0.4375 0 0  0.46875 0 0  0.5 0 0  0.53125 0 0  0.5625 0 0  0.59375 0 0  0.625 0 0  0.65625 0 0  0.6875 0 0  0.71875 0 0  0.75 0 0  0.78125 0 0  0.8125 0 0  0.84375 0 0  0.875 0 0  0.90625 0 0  0.9375 0 0  0.96875 0 0  1 0 0  1.03125 0 0  1.0625 0 0  1.09375 0 0  1.125 0 0  1.15625 0 0  1.1875 0 0  1.21875 0 0  1.25 0 0  1.28125 0 0  1.3125 0 0  1.34375 0 0  1.375 0 0  1.40625 0 0  1.4375 0 0  1.46875 0 0  1.5 0 0  0 0.03125 0  0.03125 0.03125 0  0.0625 0.03125 0  0.09375 0.03125 0  0.125 0.03125 0  0.15625 0.03125 0  0.1875 0.03125 0  0.21875 0.03125 0  0.25 0.03125 0  0.28125 0.03125 0  0.3125 0.03125 0  0.34375 0.03125 0  0.375 0.03125 0  0.40625 0.03125 0  0.4375 0.03125 0  0.46875 0.03125 0  0.5 0.03125 0  0.53125 0.03125 0  0.5625 0.03125 0  0.59375 0.03125 0  0.625 0.03125 0  0.65625 0.03125 0  0.6875 0.03125 0  0.71875 0.03125 0  0.75 0.03125 0  0.78125 0.03125 0  0.8125 0.03125 0  0.84375 0.03125 0  0.875 0.03125 0  0.90625 0.03125 0  0.9375 0.03125 0  0.96875 0.03125 0  1 0.03125 0  1.03125 0.03125 0  1.0625 0.03125 0  1.09375 0.03125 0  1.125 0.03125 0  1.15625 0.03125 0  1.1875 0.03125 0  1.21875 0.03125 0  1.25 0.03125 0  1.28125 0.03125 0  1.3125 0.03125 0  1.34375 0.03125 0  1.375 0.03125 0  1.40625 0.03125 0  1.4375 0.03125 0  1.46875 0.03125 0  1.5 0.03125 0  0 0.0625 0  0.03125 0.0625 0  0.0625 0.0625 0  0.09375 0.0625 0  0.125 0.0625 0  0.15625 0.0625 0  0.1875 0.0625 0  0.21875 0.0625 0  0.25 0.0625 0  0.28125 0.0625 0  0.3125 0.0625 0  0.34375 0.0625 0  0.375 0.0625 0  0.40625 0.0625 0  0.4375 0.0625 0  0.46875 0.0625 0  0.5 0.0625 0  0.53125 0.0625 0  0.5625 0.0625 0  0.59375 0.0625 0  0.625 0.0625 0  0.65625 0.0625 0  0.6875 0.0625 0  0.71875 0.0625 0  0.75 0.0625 0  0.78125 0.0625 0  0.8125 0.0625 0  0.84375 0.0625 0  0.875 0.0625 0  0.90625 0.0625 0  0.9375 0.0625 0  0.96875 0.0625 0  1 0.0625 0  1.03125 0.0625 0  1.0625 0.0625 0  1.09375 0.0625 0  1.125 0.0625 0  1.15625 0.0625 0  1.1875 0.0625 0  1.21875 0.0625 0  1.25 0.0625 0  1.28125 0.0625 0  1.3125 0.0625 0  1.34375 0.0625 0  1.375 0.0625 0  1.40625 0.0625 0  1.4375 0.0625 0  1.46875 0.0625 0  1.5 0.0625 0  0 0.09375 0  0.03125 0.09375 0  0.0625 0.09375 0  0.09375 0.09375 0  0.125 0.09375 0  0.15625 0.09375 0  0.1875 0.09375 0  0.21875 0.09375 0  0.25 0.09375 0  0.28125 0.09375 0  0.3125 0.09375 0  0.34375 0.09375 0  0.375 0.09375 0  0.40625 0.09375 0  0.4375 0.09375 0  0.46875 0.09375 0  0.5 0.09375 0  0.53125 0.09375 0  0.5625 0.09375 0  0.59375 0.09375 0  0.625 0.09375 0  0.65625 0.09375 0  0.6875 0.09375 0  0.71875 0.09375 0  0.75 0.09375 0  0.78125 0.09375 0  0.8125 0.09375 0  0.84375 0.09375 0  0.875 0.09375 0  0.90625 0.09375 0  0.9375 0.09375 0  0.96875 0.09375 0  1 0.09375 0  1.03125 0.09375 0  1.0625 0.09375 0  1.09375 0.09375 0  1.125 0.09375 0  1.15625 0.09375 0  1.1875 0.09375 0  1.21875 0.09375 0  1.25 0.09375 0  1.28125 0.09375 0  1.3125 0.09375 0  1.34375 0.09375 0  1.375 0.09375 0  1.40625 0.09375 0  1.4375 0.09375 0  1.46875 0.09375 0  1.5 0.09375 0  0 0.125 0  0.03125 0.125 0  0.0625 0.125 0  0.09375 0.125 0  0.125 0.125 0  0.15625 0.125 0  0.1875 0.125 0  0.21875 0.125 0  0.25 0.125 0  0.28125 0.125 0  0.3125 0.125 0  0.34375 0.125 0  0.375 0.125 0  0.40625 0.125 0  0.4375 0.125 0  0.46875 0.125 0  0.5 0.125 0  0.53125 0.125 0  0.5625 0.125 0  0.59375 0.125 0  0.625 0.125 0  0.65625 0.125 0  0.6875 0.125 0  0.71875 0.125 0  0.75 0.125 0  0.78125 0.125 0  0.8125 0.125 0  0.84375 0.125 0  0.875 0.125 0  0.90625 0.125 0  0.9375 0.125 0  0.96875 0.125 0  1 0.125 0  1.03125 0.125 0  1.0625 0.125 0  1.09375 0.125 0  1.125 0.125 0  1.15625 0.125 0  1.1875 0.125 0  1.21875 0.125 0  1.25 0.125 0  1.28125 0.125 0  1.3125 0.125 0  1.34375 0.125 0  1.375 0.125 0  1.40625 0.125 0  1.4375 0.125 0  1.46875 0.125 0  1.5 0.125 0  0 0.15625 0  0.03125 0.15625 0  0.0625 0.15625 0  0.09375 0.15625 0  0.125 0.15625 0  0.15625 0.15625 0  0.1875 0.15625 0  0.21875 0.15625 0  0.25 0.15625 0  0.28125 0.15625 0  0.3125 0.15625 0  0.34375 0.15625 0  0.375 0.15625 0  0.40625 0.15625 0  0.4375 0.15625 0  0.46875 0.15625 0  0.5 0.15625 0  0.53125 0.15625 0  0.5625 0.15625 0  0.59375 0.15625 0  0.625 0.15625 0  0.65625 0.15625 0  0.6875 0.15625 0  0.71875 0.15625 0  0.75 0.15625 0  0.78125 0.15625 0  0.8125 0.15625 0  0.84375 0.15625 0  0.875 0.15625 0  0.90625 0.15625 0  0.9375 0.15625 0  0.96875 0.15625 0  1 0.15625 0  1.03125 0.15625 0  1.0625 0.15625 0  1.09375 0.15625 0  1.125 0.15625 0  1.15625 0.15625 0  1.1875 0.15625 0  1.21875 0.15625 0  1.25 0.15625 0  1.28125 0.15625 0  1.3125 0.15625 0  1.34375 0.15625 0  1.375 0.15625 0  1.40625 0.15625 0  1.4375 0.15625 0  1.46875 0.15625 0  1.5 0.15625 0  0 0.1875 0  0.03125 0.1875 0  0.0625 0.1875 0  0.09375 0.1875 0  0.125 0.1875 0  0.15625 0.1875 0  0.1875 0.1875 0  0.21875 0.1875 0  0.25 0.1875 0  0.28125 0.1875 0  0.3125 0.1875 0  0.34375 0.1875 0  0.375 0.1875 0  0.40625 0.1875 0  0.4375 0.1875 0  0.46875 0.1875 0  0.5 0.1875 0  0.53125 0.1875 0  0.5625 0.1875 0  0.59375 0.1875 0  0.625 0.1875 0  0.65625 0.1875 0  0.6875 0.1875 0  0.71875 0.1875 0  0.75 0.1875 0  0.78125 0.1875 0  0.8125 0.1875 0  0.84375 0.1875 0  0.875 0.1875 0  0.90625 0.1875 0  0.9375 0.1875 0  0.96875 0.1875 0  1 0.1875 0  1.03125 0.1875 0  1.0625 0.1875 0  1.09375 0.1875 0  1.125 0.1875 0  1.15625 0.1875 0  1.1875 0.1875 0  1.21875 0.1875 0  1.25 0.1875 0  1.28125 0.1875 0  1.3125 0.1875 0  1.34375 0.1875 0  1.375 0.1875 0  1.40625 0.1875 0  1.4375 0.1875 0  1.46875 0.1875 0  1.5 0.1875 0  0 0.21875 0  0.03125 0.21875 0  0.0625 0.21875 0  0.09375 0.21875 0  0.125 0.21875 0  0.15625 0.21875 0  0.1875 0.21875 0  0.21875 0.21875 0  0.25 0.21875 0  0.28125 0.21875 0  0.3125 0.21875 0  0.34375 0.21875 0  0.375 0.21875 0  0.40625 0.21875 0  0.4375 0.21875 0  0.46875 0.21875 0  0.5 0.21875 0  0.53125 0.21875 0  0.5625 0.21875 0  0.59375 0.21875 0  0.625 0.21875 0  0.65625 0.21875 0  0.6875 0.21875 0  0.71875 0.21875 0  0.75 0.21875 0  0.78125 0.21875 0  0.8125 0.21875 0  0.84375 0.21875 0  0.875 0.21875 0  0.90625 0.21875 0  0.9375 0.21875 0  0.96875 0.21875 0  1 0.21875 0  1.03125 0.21875 0  1.0625 0.21875 0  1.09375 0.21875 0  1.125 0.21875 0  1.15625 0.21875 0  1.1875 0.21875 0  1.21875 0.21875 0  1.25 0.21875 0  1.28125 0.21875 0  1.3125 0.21875 0  1.34375 0.21875 0  1.375 0.21875 0  1.40625 0.21875 0  1.4375 0.21875 0  1.46875 0.21875 0  1.5 0.21875 0  0 0.25 0  0.03125 0.25 0  0.0625 0.25 0  0.09375 0.25 0  0.125 0.25 0  0.15625 0.25 0  0.1875 0.25 0  0.21875 0.25 0  0.25 0.25 0  0.28125 0.25 0  0.3125 0.25 0  0.34375 0.25 0  0.375 0.25 0  0.40625 0.25 0  0.4375 0.25 0  0.46875 0.25 0  0.5 0.25 0  0.53125 0.25 0  0.5625 0.25 0  0.59375 0.25 0  0.625 0.25 0  0.65625 0.25 0  0.6875 0.25 0  0.71875 0.25 0  0.75 0.25 0  0.78125 0.25 0  0.8125 0.25 0  0.84375 0.25 0  0.875 0.25 0  0.90625 0.25 0  0.9375 0.25 0  0.96875 0.25 0  1 0.25 0  1.03125 0.25 0  1.0625 0.25 0  1.09375 0.25 0  1.125 0.25 0  1.15625 0.25 0  1.1875 0.25 0  1.21875 0.25 0  1.25 0.25 0  1.28125 0.25 0  1.3125 0.25 0  1.34375 0.25 0  1.375 0.25 0  1.40625 0.25 0  1.4375 0.25 0  1.46875 0.25 0  1.5 0.25 0  0 0.28125 0  0.03125 0.28125 0  0.0625 0.28125 0  0.09375 0.28125 0  0.125 0.28125 0  0.15625 0.28125 0  0.1875 0.28125 0  0.21875 0.28125 0  0.25 0.28125 0  0.28125 0.28125 0  0.3125 0.28125 0  0.34375 0.28125 0  0.375 0.28125 0  0.40625 0.28125 0  0.4375 0.28125 0  0.46875 0.28125 0  0.5 0.28125 0  0.53125 0.28125 0  0.5625 0.28125 0  0.59375 0.28125 0  0.625 0.28125 0  0.65625 0.28125 0  0.6875 0.28125 0  0.71875 0.28125 0  0.75 0.28125 0  0.78125 0.28125 0  0.8125 0.28125 0  0.84375 0.28125 0  0.875 0.28125 0  0.90625 0.28125 0  0.9375 0.28125 0  0.96875 0.28125 0  1 0.28125 0  1.03125 0.28125 0  1.0625 0.28125 0  1.09375 0.28125 0  1.125 0.28125 0  1.15625 0.28125 0  1.1875 0.28125 0  1.21875 0.28125 0  1.25 0.28125 0  1.28125 0.28125 0  1.3125 0.28125 0  1.34375 0.28125 0  1.375 0.28125 0  1.40625 0.28125 0  1.4375 0.28125 0  1.46875 0.28125 0  1.5 0.28125 0  0 0.3125 0  0.03125 0.3125 0  0.0625 0.3125 0  0.09375 0.3125 0  0.125 0.3125 0  0.15625 0.3125 0  0.1875 0.3125 0  0.21875 0.3125 0  0.25 0.3125 0  0.28125 0.3125 0  0.3125 0.3125 0  0.34375 0.3125 0  0.375 0.3125 0  0.40625 0.3125 0  0.4375 0.3125 0  0.46875 0.3125 0  0.5 0.3125 0  0.53125 0.3125 0  0.5625 0.3125 0  0.59375 0.3125 0  0.625 0.3125 0  0.65625 0.3125 0  0.6875 0.3125 0  0.71875 0.3125 0  0.75 0.3125 0  0.78125 0.3125 0  0.8125 0.3125 0  0.84375 0.3125 0  0.875 0.3125 0  0.90625 0.3125 0  0.9375 0.3125 0  0.96875 0.3125 0  1 0.3125 0  1.03125 0.3125 0  1.0625 0.3125 0  1.09375 0.3125 0  1.125 0.3125 0  1.15625 0.3125 0  1.1875 0.3125 0  1.21875 0.3125 0  1.25 0.3125 0  1.28125 0.3125 0  1.3125 0.3125 0  1.34375 0.3125 0  1.375 0.3125 0  1.40625 0.3125 0  1.4375 0.3125 0  1.46875 0.3125 0  1.5 0.3125 0  0 0.34375 0  0.03125 0.34375 0  0.0625 0.34375 0  0.09375 0.34375 0  0.125 0.34375 0  0.15625 0.34375 0  0.1875 0.34375 0  0.21875 0.34375 0  0.25 0.34375 0  0.28125 0.34375 0  0.3125 0.34375 0  0.34375 0.34375 0  0.375 0.34375 0  0.40625 0.34375 0  0.4375 0.34375 0  0.46875 0.34375 0  0.5 0.34375 0  0.53125 0.34375 0  0.5625 0.34375 0  0.59375 0.34375 0  0.625 0.34375 0  0.65625 0.34375 0  0.6875 0.34375 0  0.71875 0.34375 0  0.75 0.34375 0  0.78125 0.34375 0  0.8125 0.34375 0  0.84375 0.34375 0  0.875 0.34375 0  0.90625 0.34375 0  0.9375 0.34375 0  0.96875 0.34375 0  1 0.34375 0  1.03125 0.34375 0  1.0625 0.34375 0  1.09375 0.34375 0  1.125 0.34375 0  1.15625 0.34375 0  1.1875 0.34375 0  1.21875 0.34375 0  1.25 0.34375 0  1.28125 0.34375 0  1.3125 0.34375 0  1.34375 0.34375 0  1.375 0.34375 0  1
[...]
<PointData  Vectors="f_17"> 
<DataArray  type="Float64"  Name="f_17"  NumberOfComponents="3" format="ascii">0.0000000000000000e+00 0.0000000000000000e+00 0.0000000000000000e+00  0.0000000000000000e+00 0.0000000000000000e+00 0.0000000000000000e+00  0.0000000000000000e+00 0.0000000000000000e+00 0.0000000000000000e+00  0.0000000000000000e+00 0.0000000000000000e+00 0.0000000000000000e+00  0.0000000000000000e+00 0.0000000000000000e+00 0.0000000000000000e+00  0.0000000000000000e+00 0.0000000000000000e+00 0.0000000000000000e+00  0.0000000000000000e+00 0.0000000000000000e+00 0.0000000000000000e+00  0.0000000000000000e+00 0.0000000000000000e+00 0.0000000000000000e+00  0.0000000000000000e+00 0.0000000000000000e+00 0.0000000000000000e+00  0.0000000000000000e+00 0.0000000000000000e+00 0.0000000000000000e+00  0.0000000000000000e+00 0.0000000000000000e+00 0.0000000000000000e+00  0.0000000000000000e+00 0.0000000000000000e+00 0.0000000000000000e+00  0.0000000000000000e+00 0.0000000000000000e+00 0.0000000000000000e+00  0.0000000000000000e+00 0.0000000000000000e+00 0.0000000000000000e+00  0.0000000000000000e+00 0.0000000000000000e+00 0.0000000000000000e+00  0.0000000000000000e+00 0.0000000000000000e+00 0.0000000000000000e+00  0.0000000000000000e+00 0.0000000000000000e+00 0.0000000000000000e+00  0.0000000000000000e+00 0.0000000000000000e+00 0.0000000000000000e+00  0.0000000000000000e+00 0.0000000000000000e+00 0.0000000000000000e+00  0.0000000000000000e+00 0.0000000000000000e+00 0.0000000000000000e+00  0.0000000000000000e+00 0.0000000000000000e+00 0.0000000000000000e+00  0.0000000000000000e+00 0.0000000000000000e+00 0.0000000000000000e+00  0.0000000000000000e+00 0.0000000000000000e+00 0.0000000000000000e+00  0.0000000000000000e+00 0.0000000000000000e+00 0.0000000000000000e+00  0.0000000000000000e+00 0.0000000000000000e+00 0.0000000000000000e+00  0.0000000000000000e+00 0.0000000000000000e+00 0.0000000000000000e+00  0.0000000000000000e+00 0.0000000000000000e+00 0.0000000000000000e+00  0.0000000000000000e+00 0.0000000000000000e+00 0.0000000000000000e+00  0.0000000000000000e+00 0.0000000000000000e+00 0.0000000000000000e+00  0.0000000000000000e+00 0.0000000000000000e+00 0.0000000000000000e+00  0.0000000000000000e+00 0.0000000000000000e+00 0.0000000000000000e+00  0.0000000000000000e+00 0.0000000000000000e+00 0.0000000000000000e+00  0.0000000000000000e+00 0.0000000000000000e+00 0.0000000000000000e+00  0.0000000000000000e+00 0.0000000000000000e+00 0.0000000000000000e+00  0.0000000000000000e+00 0.0000000000000000e+00 0.0000000000000000e+00  0.0000000000000000e+00 0.0000000000000000e+00 0.0000000000000000e+00  0.0000000000000000e+00 0.0000000000000000e+00 0.0000000000000000e+00  0.0000000000000000e+00 0.0000000000000000e+00 0.0000000000000000e+00  0.0000000000000000e+00 0.0000000000000000e+00 0.0000000000000000e+00  0.0000000000000000e+00 0.0000000000000000e+00 0.0000000000000000e+00  0.0000000000000000e+00 0.0000000000000000e+00 0.0000000000000000e+00  0.0000000000000000e+00 0.0000000000000000e+00 0.0000000000000000e+00  0.0000000000000000e+00 0.0000000000000000e+00 0.0000000000000000e+00  0.0000000000000000e+00 0.0000000000000000e+00 0.0000000000000000e+00  0.0000000000000000e+00 0.0000000000000000e+00 0.0000000000000000e+00  0.0000000000000000e+00 0.0000000000000000e+00 0.0000000000000000e+00  0.0000000000000000e+00 0.0000000000000000e+00 0.0000000000000000e+00  0.0000000000000000e+00 0.0000000000000000e+00 0.0000000000000000e+00  0.0000000000000000e+00 0.0000000000000000e+00 0.0000000000000000e+00  0.0000000000000000e+00 0.0000000000000000e+00 0.0000000000000000e+00  -7.3797405987145189e-08 -1.8269473516759712e-08 0.0000000000000000e+00  -1.4890420399734762e-07 1.2277791062703266e-07 0.0000000000000000e+00  -7.7653189110583736e-08 1.0460319830103094e-08 0.0000000000000000e+00  -2.8485508041940648e-07 -2.4951331371049326e-08 0.0000000000000000e+00  -2.8672821585009726e-07 -5.3589140199586839e-08 0.0000000000000000e+00  -2.9181800335803689e-07 -6.1243275066770581e-08 0.0000000000000000e+00  -2.9891450109710168e-07 -5.6585662734356409e-08 0.0000000000000000e+00  -2.9350747235939595e-07 -4.9067838133739357e-08 0.0000000000000000e+00  -2.8776637825050145e-07 -4.0121314011298817e-08 0.0000000000000000e+00  -2.8219696768939772e-07 -3.0934285537831397e-08 0.0000000000000000e+00  -2.7837128305923917e-07 -2.1972354510824305e-08 0.0000000000000000e+00  -2.7776012901148266e-07 -1.3355978078934332e-08 0.0000000000000000e+00  -2.8098975679585939e-07 -5.1414778704369111e-09 0.0000000000000000e+00  -2.8854137147877808e-07 2.6852362536038652e-09 0.0000000000000000e+00  -3.0071518412965338e-07 1.0174588667925279e-08 0.0000000000000000e+00  -3.1769929477035966e-07 1.7384186178966387e-08 0.0000000000000000e+00  -3.3961633789636702e-07 2.4347385466378031e-08 0.0000000000000000e+00  -3.6651164017337693e-07 3.1037028431036741e-08 0.0000000000000000e+00  -3.9831239810830040e-07 3.7331922474713277e-08 0.0000000000000000e+00  -4.3475574227329240e-07 4.2996465300858641e-08 0.0000000000000000e+00  -4.7530142350160481e-07 4.7684489297147766e-08 0.0000000000000000e+00  -5.1905537397106646e-07 5.0974313703131493e-08 0.0000000000000000e+00  -5.6472959646483714e-07 5.2432691179169975e-08 0.0000000000000000e+00  -6.1066648626658150e-07 5.1694235362243551e-08 0.0000000000000000e+00  -6.5492522268808624e-07 4.8535344905194234e-08 0.0000000000000000e+00  -6.9543929798599503e-07 4.2920748384839047e-08 0.0000000000000000e+00  -7.3017197113345733e-07 3.5011832797500329e-08 0.0000000000000000e+00  -7.5732227047044616e-07 2.5131498758566654e-08 0.0000000000000000e+00  -7.7536403481237860e-07 1.3711481609545013e-08 0.0000000000000000e+00  -7.8328393908169067e-07 1.2062896437426172e-09 0.0000000000000000e+00  -7.8022443394338291e-07 -1.1927446044097006e-08 0.0000000000000000e+00  -7.6619084084907968e-07 -2.5365972690673714e-08 0.0000000000000000e+00  -7.4043190465508082e-07 -3.8720901643646570e-08 0.0000000000000000e+00  -7.0458622887191635e-07 -5.2023097695687029e-08 0.0000000000000000e+00  -6.5595911503439131e-07 -6.4601633102448890e-08 0.0000000000000000e+00  -6.0126716024673567e-07 -7.7500264218353054e-08 0.0000000000000000e+00  -5.2818135266146369e-07 -8.8008103641119217e-08 0.0000000000000000e+00  -4.6392789404470982e-07 -1.0150184484140958e-07 0.0000000000000000e+00  -3.5507422961187675e-07 -1.0545752519513789e-07 0.0000000000000000e+00  -3.1352361807340405e-07 -1.2524472442205403e-07 0.0000000000000000e+00  -1.1606407907164131e-07 -1.0430041601086144e-07 0.0000000000000000e+00  -2.1801607600659968e-07 -1.5711684846939288e-07 0.0000000000000000e+00  2.8294068130203808e-07 -3.8122687572643539e-08 0.0000000000000000e+00  -4.4337418844023238e-07 -2.4382206020343537e-07 0.0000000000000000e+00  1.1204669001618476e-06 2.2773966544302592e-07 0.0000000000000000e+00  -2.4840623661423372e-06 -7.6090100338145369e-07 0.0000000000000000e+00  2.9235647055182559e-06 1.3383139598822182e-06 0.0000000000000000e+00  0.0000000000000000e+00 0.0000000000000000e+00 0.0000000000000000e+00  0.0000000000000000e+00 0.0000000000000000e+00 0.0000000000000000e+00  -1.4587223154003493e-06 6.3666215293287212e-07 0.0000000000000000e+00  7.7111823817954536e-07 -1.2311683042555386e-08 0.0000000000000000e+00  -1.1704455493706725e-07 1.3610476601778064e-07 0.0000000000000000e+00  -2.8778411291596363e-07 2.2951868803883769e-08 0.0000000000000000e+00  -3.1331995678095644e-07 -2.9192049942007185e-08 0.0000000000000000e+00  -3.8705132484704978e-07 -5.4761038758891276e-08 0.0000000000000000e+00  -4.0181934920194129e-07 -6.3696658644859611e-08 0.0000000000000000e+00  -4.0587923884470760e-07 -6.3089132098102025e-08 0.0000000000000000e+00  -4.0470028140448764e-07 -5.6587786114666081e-08 0.0000000000000000e+00  -3.9964264446508986e-07 -4.6719899903482811e-08 0.0000000000000000e+00  -3.9550732340567161e-07 -3.4845898084530970e-08 0.0000000000000000e+00  -3.9372815446880229e-07 -2.1850743213941384e-08 0.0000000000000000e+00  -3.9546850298393571e-07 -8.3064101283440833e-09 0.0000000000000000e+00  -4.0151516934850690e-07 5.4500492764988558e-09 0.0000000000000000e+00  -4.1229304701538681e-07 1.9234938221854241e-08 0.0000000000000000e+00  -4.2807400664301719e-07 3.2948584556018968e-08 0.0000000000000000e+00  -4.4900463400094226e-07 4.6501552474743674e-08 0.0000000000000000e+00  -4.7512294514715845e-07 5.9732336684346661e-08 0.0000000000000000e+00  -5.0632840743824272e-07 7.2328440618357959e-08 0.0000000000000000e+00  -5.4230643438653102e-07 8.3770954416264358e-08 0.0000000000000000e+00  -5.8242864172076601e-07 9.3327174017486461e-08 0.0000000000000000e+00  -6.2565980380758935e-07 1.0010973123052705e-07 0.0000000000000000e+00  -6.7050834231891336e-07 1.0320140210185862e-07 0.0000000000000000e+00  -7.1506034184152265e-07 1.0181938870832706e-07 0.0000000000000000e+00  -7.5709740490897988e-07 9.5473598633845881e-08 0.0000000000000000e+00  -7.9430479188077702e-07 8.4070168689059991e-08 0.0000000000000000e+00  -8.2447572298747824e-07 6.7932171127550629e-08 0.0000000000000000e+00  -8.4575968085406933e-07 4.7730597719927686e-08 0.0000000000000000e+00  -8.5670437483771958e-07 2.4366558351203210e-08 0.0000000000000000e+00  -8.5649862188389291e-07 -1.1911389062174964e-09 0.0000000000000000e+00  -8.4455293763147142e-07 -2.7990855276401871e-08 0.0000000000000000e+00  -8.2123299433178673e-07 -5.5276227402566954e-08 0.0000000000000000e+00  -7.8610398254021328e-07 -8.2303819416011774e-08 0.0000000000000000e+00  -7.4125821203734720e-07 -1.0881024170953355e-07 0.0000000000000000e+00  -6.8425316280647191e-07 -1.3389479714378347e-07 0.0000000000000000e+00  -6.2245186188300362e-07 -1.5829974871835035e-07 0.0000000000000000e+00  -5.4364383534183503e-07 -1.7917459678814164e-07 0.0000000000000000e+00  -4.7614597226835389e-07 -2.0113199591089024e-07 0.0000000000000000e+00  -3.6657344426555635e-07 -2.1207250926062332e-07 0.0000000000000000e+00  -3.2827998725469786e-07 -2.3440806848016831e-07 0.0000000000000000e+00  -1.3932796807458226e-07 -2.1593659326063335e-07 0.0000000000000000e+00  -2.5412723011513832e-07 -2.5883642597264365e-07 0.0000000000000000e+00  2.1833953200478931e-07 -1.4333936808242083e-07 0.0000000000000000e+00  -5.2611111278369225e-07 -3.1472542676234272e-07 0.0000000000000000e+00  9.2714367774687016e-07 1.1820278938296345e-07 0.0000000000000000e+00  -2.5021423306846230e-06 -6.4771256268401087e-07 0.0000000000000000e+00  2.8542044480235104e-06 1.3386167077871976e-06 0.0000000000000000e+00  0.0000000000000000e+00 0.0000000000000000e+00 0.0000000000000000e+00  0.0000000000000000e+00 0.0000000000000000e+00 0.0000000000000000e+00  -2.5501120529293502e-06 1.1132195054330004e-06 0.0000000000000000e+00  1.7178875695849506e-06 -1.1135745576324858e-07 0.0000000000000000e+00  -3.9750313937593690e-07 2.9804092128610395e-07 0.0000000000000000e+00  -9.6599067797120954e-09 5.3423715373729539e-08 0.0000000000000000e+00  -1.6324856574336174e-07 2.5997442939090092e-08 0.0000000000000000e+00  -2.3380478212829365e-07 -2.7359062780148830e-08 0.0000000000000000e+00  -2.6393253563062846e-07 -4.8788517977985845e-08 0.0000000000000000e+00  -3.0421109925940862e-07 -5.6428417244936125e-08 0.0000000000000000e+00  -3.2855428339276196e-07 -5.4107459692044142e-08 0.0000000000000000e+00  -3.4729340144561841e-07 -4.5311151366236069e-08 0.0000000000000000e+00  -3.6278363883154229e-07 -3.2480252030826644e-08 0.0000000000000000e+00  -3.7635482757640268e-07 -1.7185908938124802e-08 0.0000000000000000e+00  -3.8996692642648406e-07 -4.8437654575207990e-10 0.0000000000000000e+00  -4.0466778464070217e-07 1.6958074064338901e-08 0.0000000000000000e+00  -4.2126464344352843e-07 3.4743372653799574e-08 0.0000000000000000e+00  -4.4034063398085373e-07 5.2640810409106783e-08 0.0000000000000000e+00  -4.6229680156596994e-07 7.0477397683944033e-08 0.0000000000000000e+00  -4.8740660036229261e-07 8.8010678441804011e-08 0.0000000000000000e+00  -5.1579237540413972e-07 1.0479927435169722e-07 0.0000000000000000e+00  -5.4735529547106401e-07 1.2010088595288724e-07 0.0000000000000000e+00  -5.8166440937252143e-07 1.3284213843939224e-07 0.0000000000000000e+00  -6.1784380013363956e-07 1.4169767636365956e-07 0.0000000000000000e+00  -6.5451053567202888e-07 1.4528391532513606e-07 0.0000000000000000e+00  -6.8982015879282253e-07 1.4242568536839838e-07 0.0000000000000000e+00  -7.2162635741985190e-07 1.3241576054551491e-07 0.0000000000000000e+00  -7.4775267314961399e-07 1.1518057987361592e-07 0.0000000000000000e+00  -7.6625475882165994e-07 9.1302095961453076e-08 0.0000000000000000e+00  -7.7570253016944959e-07 6.1891813879350661e-08 0.0000000000000000e+00  -7.7520678229753911e-07 2.8383367167967002e-08 0.0000000000000000e+00  -7.6462927550857505e-07 -7.7224871854919016e-09 0.0000000000000000e+00  -7.4408187897078638e-07 -4.5008947373827585e-08 0.0000000000000000e+00  -7.1464767144381787e-07 -8.2358208535389332e-08 0.0000000000000000e+00  -6.7651004864315988e-07 -1.1876181141038518e-07 0.0000000000000000e+00  -6.3241751180024853e-07 -1.5377550217601189e-07 0.0000000000000000e+00  -5.8035246434156807e-07 -1.8634705303817689e-07 0.0000000000000000e+00  -5.2838106893209775e-07 -2.1707542150507544e-07 0.0000000000000000e+00  -4.6442811009819950e-07 -2.4294875798141211e-07 0.0000000000000000e+00  -4.1780051902632830e-07 -2.6825248877158763e-07 0.0000000000000000e+00  -3.3474602049249610e-07 -2.8092990348471713e-07 0.0000000000000000e+00  -3.2967543160829753e-07 -3.0220058077537537e-07 0.0000000000000000e+00  -1.8061018657944165e-07 -2.8252188546009594e-07 0.0000000000000000e+00  -3.3796281241797611e-07 -3.1811695692754805e-07 0.0000000000000000e+00  7.7905171701924855e-08 -2.0876114337714797e-07 0.0000000000000000e+00  -6.9602729930481509e-07 -3.6231700176719163e-07 0.0000000000000000e+00  6.7605346583086123e-07 1.8061036836817849e-08 0.0000000000000000e+00  -2.6761474784261136e-06 -6.3586321159296275e-07 0.0000000000000000e+00  2.4947069044264325e-06 1.1028673055244508e-06 0.0000000000000000e+00  0.0000000000000000e+00 0.0000000000000000e+00 0.0000000000000000e+00  0.0000000000000000e+00 0.0000000000000000e+00 0.0000000000000000e+00  -2.8098131929787938e-06 1.1671019590705886e-06 0.0000000000000000e+00  2.3279115815337842e-06 -1.3806076605835343e-07 0.0000000000000000e+00  -7.0672033478748453e-07 3.8004377343135903e-07 0.0000000000000000e+00  2.5631417937789720e-07 7.0219985644403543e-08 0.0000000000000000e+00  -1.8003091469042790e-07 1.0381298163966780e-07 0.0000000000000000e+00  -1.3403052609110474e-07 2.1314383801964459e-08 0.0000000000000000e+00  -1.9272128690644177e-07 -2.3637833372436562e-09 0.0000000000000000e+00  -2.3912040518747468e-07 -2.2119996743138511e-08 0.0000000000000000e+00  -2.7028216089485892e-07 -2.7326123369208667e-08 0.0000000000000000e+00  -3.0028504966960362e-07 -2.4136028416998989e-08 0.0000000000000000e+00  -3.2441400613449274e-07 -1.4705107905561593e-08 0.0000000000000000e+00  -3.4570236111463047e-07 -1.0435574979192550e-09 0.0000000000000000e+00  -3.6547456850389715e-07 1.5350290210750640e-08 0.0000000000000000e+00  -3.8461409693964873e-07 3.3463567935700143e-08 0.0000000000000000e+00  -4.0400298413526580e-07 5.2614095578020304e-08 0.0000000000000000e+00  -4.2422592500391638e-07 7.2377906834105813e-08 0.0000000000000000e+00  -4.4575156232124771e-07 9.2453847073626820e-08 0.0000000000000000e+00  -4.6895640014334699e-07 1.1249951372470305e-07 0.0000000000000000e+00  -4.9410865578626089e-07 1.3194254331590974e-07 0.0000000000000000e+00  -5.2129186647242058e-07 1.4981150871383004e-07 0.0000000000000000e+00  -5.5025724620486537e-07 1.6466177892400263e-07 0.0000000000000000e+00  -5.8026050672869034e-07 1.7466803164144878e-07 0.0000000000000000e+00  -6.0995991953374581e-07 1.7790621201233985e-07 0.0000000000000000e+00  -6.3746615724808080e-07 1.7276215614489651e-07 0.0000000000000000e+00  -6.6056396236273594e-07 1.5833075578516016e-07 0.0000000000000000e+00  -6.7708840935130568e-07 1.3465740324215530e-07 0.0000000000000000e+00  -6.8528138663684220e-07 1.0274003311697458e-07 0.0000000000000000e+00  -6.8412545549463596e-07 6.4301904623473541e-08 0.0000000000000000e+00  -6.7333325184359981e-07 2.1447530179471965e-08 0.0000000000000000e+00  -6.5350115753440445e-07 -2.3713307844497226e-08 0.0000000000000000e+00  -6.2546265974491365e-07 -6.9289916501040959e-08 0.0000000000000000e+00  -5.9101498910969478e-07 -1.1384288536053899e-07 0.0000000000000000e+00  -5.5082058621129217e-07 -1.5617286329103759e-07 0.0000000000000000e+00  -5.0819093186770890e-07 -1.9571967254565239e-07 0.0000000000000000e+00  -4.6110674385195804e-07 -2.3136758840896598e-07 0.0000000000000000e+00  -4.1831591424802216e-07 -2.6359112209836328e-07 0.0000000000000000e+00  -3.6675786843717200e-07 -2.8937441529222968e-07 0.0000000000000000e+00  -3.3746176403672518e-07 -3.1262669830148296e-07 0.0000000000000000e+00  -2.7287945816124303e-07 -3.2186655519343607e-07 0.0000000000000000e+00  -2.9294724352317704e-07 -3.3695787162779459e-07 0.0000000000000000e+00  -1.6337082571219437e-07 -3.1248956850580052e-07 0.0000000000000000e+00  -3.5205120108331712e-07 -3.3820069549661148e-07 0.0000000000000000e+00  5.6181702504101412e-08 -2.3419244080473773e-07 0.0000000000000000e+00  -7.5023516048361536e-07 -3.7143005183649942e-07 0.0000000000000000e+00  6.4425724692411330e-07 -3.6849391488655746e-08 0.0000000000000000e+00  -2.7128764485087250e-06 -6.1023475494871022e-07 0.0000000000000000e+00  2.4852170332383574e-06 9.3108719001123862e-07 0.0000000000000000e+00  0.0000000000000000e+00 0.0000000000000000e+00 0.0000000000000000e+00  0.0000000000000000e+00 0.0000000000000000e+00 0.0000000000000000e+00  -2.7587196581180598e-06 1.0720603339781577e-06 0.0000000000000000e+00  2.5749692808292506e-06 -1.1375207610609639e-07 0.0000000000000000e+00  -8.4585326422338186e-07 3.8573595085005059e-07 0.0000000000000000e+00  4.7109718860120323e-07 8.6560626582301333e-08 0.0000000000000000e+00  -2.2274801656634654e-07 1.6274084402261862e-07 0.0000000000000000e+00  -1.3283561490714449e-08 6.3539004652130056e-08 0.0000000000000000e+00  -1.3456489230111465e-07 4.7800967901697699e-08 0.0000000000000000e+00  -1.5806334674512992e-07 1.7511866797674943e-08 0.0000000000000000e+00  -1.9748759716162603e-07 7.8790253642673150e-09 0.0000000000000000e+00  -2.3313397544807777e-07 5.4102299754170399e-09 0.0000000000000000e+00  -2.6268094706204422e-07 1.1047819843385011e-08 0.0000000000000000e+00  -2.9008383778165271e-07 2.2025677017654983e-08 0.0000000000000000e+00  -3.1484484748180096e-07 3.6813839627535205e-08 0.0000000000000000e+00  -3.3803495608378950e-07 5.4153364316885632e-08 0.0000000000000000e+00  -3.6031609870434857e-07 7.3150825645455535e-08 0.0000000000000000e+00  -3.8217892528084125e-07 9.3241653453664686e-08 0.0000000000000000e+00  -4.0409677625024977e-07 1.1404652635422099e-07 0.0000000000000000e+00  -4.2649679982861612e-07 1.3519179409406158e-07 0.0000000000000000e+00  -4.4978398988429738e-07 1.5604912427265148e-07 0.0000000000000000e+00  -4.7424249977155729e-07 1.7546962685005195e-07 0.0000000000000000e+00  -4.9983062850268557e-07 1.9162726416167668e-07 0.0000000000000000e+00  -5.2592803553994556e-07 2.0210986107481530e-07 0.0000000000000000e+00  -5.5115578195921432e-07 2.0432295422697901e-07 0.0000000000000000e+00  -5.7342352459592345e-07 1.9611485244840148e-07 0.0000000000000000e+00  -5.9025331864928554e-07 1.7638869461445833e-07 0.0000000000000000e+00  -5.9933108956794304e-07 1.4544460512953777e-07 0.0000000000000000e+00  -5.9901864290882524e-07 1.0492323451344148e-07 0.0000000000000000e+00  -5.8875206908856245e-07 5.7398450852837353e-08 0.0000000000000000e+00  -5.6895968080085794e-07 5.8203461994487053e-09 0.0000000000000000e+00  -5.4109162761356664e-07 -4.7024934748495267e-08 0.0000000000000000e+00  -5.0678257574294367e-07 -9.8812712150899277e-08 0.0000000000000000e+00  -4.6853339054336945e-07 -1.4790262866585749e-07 0.0000000000000000e+00  -4.2742369625432859e-07 -1.9306491234947742e-07 0.0000000000000000e+00  -3.8713975974557861e-07 -2.3380008071666152e-07 0.000