<?xml version="1.0"?>
<VTKFile type="UnstructuredGrid"  version="0.1"  >
<UnstructuredGrid>
<Piece  NumberOfPoints="1617" NumberOfCells="3072">
<Points>
<DataArray  type="Float64"  NumberOfComponents="3"  format="ascii">0 0 0  0.03125 0 0  0.0625 0 0  0.09375 0 0  0.125 0 0  0.15625 0 0  0.1875 0 0  0.21875 0 0  0.25 0 0  0.28125 0 0  0.3125 0 0  0.34375 0 0  0.375 0 0  0.40625 0 0  0.4375 0 0  0.46875 0 0  0.5 0 0  0.53125 0 0  0.5625 0 0  0.59375 0 0  0.625 0 0  0.65625 0 0  0.6875 0 0  0.71875 0 0  0.75 0 0  0.78125 0 0  0.8125 0 0  0.84375 0 0  0.875 0 0  0.90625 0 0  0.9375 0 0  0.96875 0 0  1 0 0  1.03125 0 0  1.0625 0 0  1.09375 0 0  1.125 0 0  1.15625 0 0  1.1875 0 0  1.21875 0 0  1.25 0 0  1.28125 0 0  1.3125 0 0  1.34375 0 0  1.375 0 0  1.40625 0 0  1.4375 0 0  1.46875 0 0  1.5 0 0  0 0.03125 0  0.03125 0.03125 0  0.0625 0.03125 0  0.09375 0.03125 0  0.125 0.03125 0  0.15625 0.03125 0  0.1875 0.03125 0  0.21875 0.03125 0  0.25 0.03125 0  0.28125 0.03125 0  0.3125 0.03125 0  0.34375 0.03125 0  0.375 0.03125 0  0.40625 0.03125 0  0.4375 0.03125 0  0.46875 0.03125 0  0.5 0.03125 0  0.53125 0.03125 0  0.5625 0.03125 0  0.59375 0.03125 0  0.625 0.03125 0  0.65625 0.03125 0  0.6875 0.03125 0  0.71875 0.03125 0  0.75 0.03125 0  0.78125 0.03125 0  0.8125 0.03125 0  0.84375 0.03125 0  0.875 0.03125 0  0.90625 0.03125 0  0.9375 0.03125 0  0.96875 0.03125 0  1 0.03125 0  1.03125 0.03125 0  1.0625 0.03125 0  1.09375 0.03125 0  1.125 0.03125 0  1.15625 0.03125 0  1.1875 0.03125 0  1.21875 0.03125 0  1.25 0.03125 0  1.28125 0.03125 0  1.3125 0.03125 0  1.34375 0.03125 0  1.375 0.03125 0  1.40625 0.03125 0  1.4375 0.03125 0  1.46875 0.03125 0  1.5 0.03125 0  0 0.0625 0  0.03125 0.0625 0  0.0625 0.0625 0  0.09375 0.0625 0  0.125 0.0625 0  0.15625 0.0625 0  0.1875 0.0625 0  0.21875 0.0625 0  0.25 0.0625 0  0.28125 0.0625 0  0.3125 0.0625 0  0.34375 0.0625 0  0.375 0.0625 0  0.40625 0.0625 0  0.4375 0.0625 0  0.46875 0.0625 0  0.5 0.0625 0  0.53125 0.0625 0  0.5625 0.0625 0  0.59375 0.0625 0  0.625 0.0625 0  0.65625 0.0625 0  0.6875 0.0625 0  0.71875 0.0625 0  0.75 0.0625 0  0.78125 0.0625 0  0.8125 0.0625 0  0.84375 0.0625 0  0.875 0.0625 0  0.90625 0.0625 0  0.9375 0.0625 0  0.96875 0.0625 0  1 0.0625 0  1.03125 0.0625 0  1.0625 0.0625 0  1.09375 0.0625 0  1.125 0.0625 0  1.15625 0.0625 0  1.1875 0.0625 0  1.21875 0.0625 0  1.25 0.0625 0  1.28125 0.0625 0  1.3125 0.0625 0  1.34375 0.0625 0  1.375 0.0625 0  1.40625 0.0625 0  1.4375 0.0625 0  1.46875 0.0625 0  1.5 0.0625 0  0 0.09375 0  0.03125 0.09375 0  0.0625 0.09375 0  0.09375 0.09375 0  0.125 0.09375 0  0.15625 0.09375 0  0.1875 0.09375 0  0.21875 0.09375 0  0.25 0.09375 0  0.28125 0.09375 0  0.3125 0.09375 0  0.34375 0.09375 0  0.375 0.09375 0  0.40625 0.09375 0  0.4375 0.09375 0  0.46875 0.09375 0  0.5 0.09375 0  0.53125 0.09375 0  0.5625 0.09375 0  0.59375 0.09375 0  0.625 0.09375 0  0.65625 0.09375 0  0.6875 0.09375 0  0.71875 0.09375 0  0.75 0.09375 0  0.78125 0.09375 0  0.8125 0.09375 0  0.84375 0.09375 0  0.875 0.09375 0  0.90625 0.09375 0  0.9375 0.09375 0  0.96875 0.09375 0  1 0.09375 0  1.03125 0.09375 0  1.0625 0.09375 0  1.09375 0.09375 0  1.125 0.09375 0  1.15625 0.09375 0  1.1875 0.09375 0  1.21875 0.09375 0  1.25 0.09375 0  1.28125 0.09375 0  1.3125 0.09375 0  1.34375 0.09375 0  1.375 0.09375 0  1.40625 0.09375 0  1.4375 0.09375 0  1.46875 0.09375 0  1.5 0.09375 0  0 0.125 0  0.03125 0.125 0  0.0625 0.125 0  0.09375 0.125 0  0.125 0.125 0  0.15625 0.125 0  0.1875 0.125 0  0.21875 0.125 0  0.25 0.125 0  0.28125 0.125 0  0.3125 0.125 0  0.34375 0.125 0  0.375 0.125 0  0.40625 0.125 0  0.4375 0.125 0  0.46875 0.125 0  0.5 0.125 0  0.53125 0.125 0  0.5625 0.125 0  0.59375 0.125 0  0.625 0.125 0  0.65625 0.125 0  0.6875 0.125 0  0.71875 0.125 0  0.75 0.125 0  0.78125 0.125 0  0.8125 0.125 0  0.84375 0.125 0  0.875 0.125 0  0.90625 0.125 0  0.9375 0.125 0  0.96875 0.125 0  1 0.125 0  1.03125 0.125 0  1.0625 0.125 0  1.09375 0.125 0  1.125 0.125 0  1.15625 0.125 0  1.1875 0.125 0  1.21875 0.125 0  1.25 0.125 0  1.28125 0.125 0  1.3125 0.125 0  1.34375 0.125 0  1.375 0.125 0  1.40625 0.125 0  1.4375 0.125 0  1.46875 0.125 0  1.5 0.125 0  0 0.15625 0  0.03125 0.15625 0  0.0625 0.15625 0  0.09375 0.15625 0  0.125 0.15625 0  0.15625 0.15625 0  0.1875 0.15625 0  0.21875 0.15625 0  0.25 0.15625 0  0.28125 0.15625 0  0.3125 0.15625 0  0.34375 0.15625 0  0.375 0.15625 0  0.40625 0.15625 0  0.4375 0.15625 0  0.46875 0.15625 0  0.5 0.15625 0  0.53125 0.15625 0  0.5625 0.15625 0  0.59375 0.15625 0  0.625 0.15625 0  0.65625 0.15625 0  0.6875 0.15625 0  0.71875 0.15625 0  0.75 0.15625 0  0.78125 0.15625 0  0.8125 0.15625 0  0.84375 0.15625 0  0.875 0.15625 0  0.90625 0.15625 0  0.9375 0.15625 0  0.96875 0.15625 0  1 0.15625 0  1.03125 0.15625 0  1.0625 0.15625 0  1.09375 0.15625 0  1.125 0.15625 0  1.15625 0.15625 0  1.1875 0.15625 0  1.21875 0.15625 0  1.25 0.15625 0  1.28125 0.15625 0  1.3125 0.15625 0  1.34375 0.15625 0  1.375 0.15625 0  1.40625 0.15625 0  1.4375 0.15625 0  1.46875 0.15625 0  1.5 0.15625 0  0 0.1875 0  0.03125 0.1875 0  0.0625 0.1875 0  0.09375 0.1875 0  0.125 0.1875 0  0.15625 0.1875 0  0.1875 0.1875 0  0.21875 0.1875 0  0.25 0.1875 0  0.28125 0.1875 0  0.3125 0.1875 0  0.34375 0.1875 0  0.375 0.1875 0  0.40625 0.1875 0  0.4375 0.1875 0  0.46875 0.1875 0  0.5 0.1875 0  0.53125 0.1875 0  0.5625 0.1875 0  0.59375 0.1875 0  0.625 0.1875 0  0.65625 0.1875 0  0.6875 0.1875 0  0.71875 0.1875 0  0.75 0.1875 0  0.78125 0.1875 0  0.8125 0.1875 0  0.84375 0.1875 0  0.875 0.1875 0  0.90625 0.1875 0  0.9375 0.1875 0  0.96875 0.1875 0  1 0.1875 0  1.03125 0.1875 0  1.0625 0.1875 0  1.09375 0.1875 0  1.125 0.1875 0  1.15625 0.1875 0  1.1875 0.1875 0  1.21875 0.1875 0  1.25 0.1875 0  1.28125 0.1875 0  1.3125 0.1875 0  1.34375 0.1875 0  1.375 0.1875 0  1.40625 0.1875 0  1.4375 0.1875 0  1.46875 0.1875 0  1.5 0.1875 0  0 0.21875 0  0.03125 0.21875 0  0.0625 0.21875 0  0.09375 0.21875 0  0.125 0.21875 0  0.15625 0.21875 0  0.1875 0.21875 0  0.21875 0.21875 0  0.25 0.21875 0  0.28125 0.21875 0  0.3125 0.21875 0  0.34375 0.21875 0  0.375 0.21875 0  0.40625 0.21875 0  0.4375 0.21875 0  0.46875 0.21875 0  0.5 0.21875 0  0.53125 0.21875 0  0.5625 0.21875 0  0.59375 0.21875 0  0.625 0.21875 0  0.65625 0.21875 0  0.6875 0.21875 0  0.71875 0.21875 0  0.75 0.21875 0  0.78125 0.21875 0  0.8125 0.21875 0  0.84375 0.21875 0  0.875 0.21875 0  0.90625 0.21875 0  0.9375 0.21875 0  0.96875 0.21875 0  1 0.21875 0  1.03125 0.21875 0  1.0625 0.21875 0  1.09375 0.21875 0  1.125 0.21875 0  1.15625 0.21875 0  1.1875 0.21875 0  1.21875 0.21875 0  1.25 0.21875 0  1.28125 0.21875 0  1.3125 0.21875 0  1.34375 0.21875 0  1.375 0.21875 0  1.40625 0.21875 0  1.4375 0.21875 0  1.46875 0.21875 0  1.5 0.21875 0  0 0.25 0  0.03125 0.25 0  0.0625 0.25 0  0.09375 0.25 0  0.125 0.25 0  0.15625 0.25 0  0.1875 0.25 0  0.21875 0.25 0  0.25 0.25 0  0.28125 0.25 0  0.3125 0.25 0  0.34375 0.25 0  0.375 0.25 0  0.40625 0.25 0  0.4375 0.25 0  0.46875 0.25 0  0.5 0.25 0  0.53125 0.25 0  0.5625 0.25 0  0.59375 0.25 0  0.625 0.25 0  0.65625 0.25 0  0.6875 0.25 0  0.71875 0.25 0  0.75 0.25 0  0.78125 0.25 0  0.8125 0.25 0  0.84375 0.25 0  0.875 0.25 0  0.90625 0.25 0  0.9375 0.25 0  0.96875 0.25 0  1 0.25 0  1.03125 0.25 0  1.0625 0.25 0  1.09375 0.25 0  1.125 0.25 0  1.15625 0.25 0  1.1875 0.25 0  1.21875 0.25 0  1.25 0.25 0  1.28125 0.25 0  1.3125 0.25 0  1.34375 0.25 0  1.375 0.25 0  1.40625 0.25 0  1.4375 0.25 0  1.46875 0.25 0  1.5 0.25 0  0 0.28125 0  0.03125 0.28125 0  0.0625 0.28125 0  0.09375 0.28125 0  0.125 0.28125 0  0.15625 0.28125 0  0.1875 0.28125 0  0.21875 0.28125 0  0.25 0.28125 0  0.28125 0.28125 0  0.3125 0.28125 0  0.34375 0.28125 0  0.375 0.28125 0  0.40625 0.28125 0  0.4375 0.28125 0  0.46875 0.28125 0  0.5 0.28125 0  0.53125 0.28125 0  0.5625 0.28125 0  0.59375 0.28125 0  0.625 0.28125 0  0.65625 0.28125 0  0.6875 0.28125 0  0.71875 0.28125 0  0.75 0.28125 0  0.78125 0.28125 0  0.8125 0.28125 0  0.84375 0.28125 0  0.875 0.28125 0  0.90625 0.28125 0  0.9375 0.28125 0  0.96875 0.28125 0  1 0.28125 0  1.03125 0.28125 0  1.0625 0.28125 0  1.09375 0.28125 0  1.125 0.28125 0  1.15625 0.28125 0  1.1875 0.28125 0  1.21875 0.28125 0  1.25 0.28125 0  1.28125 0.28125 0  1.3125 0.28125 0  1.34375 0.28125 0  1.375 0.28125 0  1.40625 0.28125 0  1.4375 0.28125 0  1.46875 0.28125 0  1.5 0.28125 0  0 0.3125 0  0.03125 0.3125 0  0.0625 0.3125 0  0.09375 0.3125 0  0.125 0.3125 0  0.15625 0.3125 0  0.1875 0.3125 0  0.21875 0.3125 0  0.25 0.3125 0  0.28125 0.3125 0  0.3125 0.3125 0  0.34375 0.3125 0  0.375 0.3125 0  0.40625 0.3125 0  0.4375 0.3125 0  0.46875 0.3125 0  0.5 0.3125 0  0.53125 0.3125 0  0.5625 0.3125 0  0.59375 0.3125 0  0.625 0.3125 0  0.65625 0.3125 0  0.6875 0.3125 0  0.71875 0.3125 0  0.75 0.3125 0  0.78125 0.3125 0  0.8125 0.3125 0  0.84375 0.3125 0  0.875 0.3125 0  0.90625 0.3125 0  0.9375 0.3125 0  0.96875 0.3125 0  1 0.3125 0  1.03125 0.3125 0  1.0625 0.3125 0  1.09375 0.3125 0  1.125 0.3125 0  1.15625 0.3125 0  1.1875 0.3125 0  1.21875 0.3125 0  1.25 0.3125 0  1.28125 0.3125 0  1.3125 0.3125 0  1.34375 0.3125 0  1.375 0.3125 0  1.40625 0.3125 0  1.4375 0.3125 0  1.46875 0.3125 0  1.5 0.3125 0  0 0.34375 0  0.03125 0.34375 0  0.0625 0.34375 0  0.09375 0.34375 0  0.125 0.34375 0  0.15625 0.34375 0  0.1875 0.34375 0  0.21875 0.34375 0  0.25 0.34375 0  0.28125 0.34375 0  0.3125 0.34375 0  0.34375 0.34375 0  0.375 0.34375 0  0.40625 0.34375 0  0.4375 0.34375 0  0.46875 0.34375 0  0.5 0.34375 0  0.53125 0.34375 0  0.5625 0.34375 0  0.59375 0.34375 0  0.625 0.34375 0  0.65625 0.34375 0  0.6875 0.34375 0  0.71875 0.34375 0  0.75 0.34375 0  0.78125 0.34375 0  0.8125 0.34375 0  0.84375 0.34375 0  0.875 0.34375 0  0.90625 0.34375 0  0.9375 0.34375 0  0.96875 0.34375 0  1 0.34375 0  1.03125 0.34375 0  1.0625 0.34375 0  1.09375 0.34375 0  1.125 0.34375 0  1.15625 0.34375 0  1.1875 0.34375 0  1.21875 0.34375 0  1.25 0.34375 0  1.28125 0.34375 0  1.3125 0.34375 0  1.34375 0.34375 0  1.375 0.34375 0  1
[...]
<PointData  Vectors="f_17"> 
<DataArray  type="Float64"  Name="f_17"  NumberOfComponents="3" format="ascii">0.0000000000000000e+00 0.0000000000000000e+00 0.0000000000000000e+00  0.0000000000000000e+00 0.0000000000000000e+00 0.0000000000000000e+00  0.0000000000000000e+00 0.0000000000000000e+00 0.0000000000000000e+00  0.0000000000000000e+00 0.0000000000000000e+00 0.0000000000000000e+00  0.0000000000000000e+00 0.0000000000000000e+00 0.0000000000000000e+00  0.0000000000000000e+00 0.0000000000000000e+00 0.0000000000000000e+00  0.0000000000000000e+00 0.0000000000000000e+00 0.0000000000000000e+00  0.0000000000000000e+00 0.0000000000000000e+00 0.0000000000000000e+00  0.0000000000000000e+00 0.0000000000000000e+00 0.0000000000000000e+00  0.0000000000000000e+00 0.0000000000000000e+00 0.0000000000000000e+00  0.0000000000000000e+00 0.0000000000000000e+00 0.0000000000000000e+00  0.0000000000000000e+00 0.0000000000000000e+00 0.0000000000000000e+00  0.0000000000000000e+00 0.0000000000000000e+00 0.0000000000000000e+00  0.0000000000000000e+00 0.0000000000000000e+00 0.0000000000000000e+00  0.0000000000000000e+00 0.0000000000000000e+00 0.0000000000000000e+00  0.0000000000000000e+00 0.0000000000000000e+00 0.0000000000000000e+00  0.0000000000000000e+00 0.0000000000000000e+00 0.0000000000000000e+00  0.0000000000000000e+00 0.0000000000000000e+00 0.0000000000000000e+00  0.0000000000000000e+00 0.0000000000000000e+00 0.0000000000000000e+00  0.0000000000000000e+00 0.0000000000000000e+00 0.0000000000000000e+00  0.0000000000000000e+00 0.0000000000000000e+00 0.0000000000000000e+00  0.0000000000000000e+00 0.0000000000000000e+00 0.0000000000000000e+00  0.0000000000000000e+00 0.0000000000000000e+00 0.0000000000000000e+00  0.0000000000000000e+00 0.0000000000000000e+00 0.0000000000000000e+00  0.0000000000000000e+00 0.0000000000000000e+00 0.0000000000000000e+00  0.0000000000000000e+00 0.0000000000000000e+00 0.0000000000000000e+00  0.0000000000000000e+00 0.0000000000000000e+00 0.0000000000000000e+00  0.0000000000000000e+00 0.0000000000000000e+00 0.0000000000000000e+00  0.0000000000000000e+00 0.0000000000000000e+00 0.0000000000000000e+00  0.0000000000000000e+00 0.0000000000000000e+00 0.0000000000000000e+00  0.0000000000000000e+00 0.0000000000000000e+00 0.0000000000000000e+00  0.0000000000000000e+00 0.0000000000000000e+00 0.0000000000000000e+00  0.0000000000000000e+00 0.0000000000000000e+00 0.0000000000000000e+00  0.0000000000000000e+00 0.0000000000000000e+00 0.0000000000000000e+00  0.0000000000000000e+00 0.0000000000000000e+00 0.0000000000000000e+00  0.0000000000000000e+00 0.0000000000000000e+00 0.0000000000000000e+00  0.0000000000000000e+00 0.0000000000000000e+00 0.0000000000000000e+00  0.0000000000000000e+00 0.0000000000000000e+00 0.0000000000000000e+00  0.0000000000000000e+00 0.0000000000000000e+00 0.0000000000000000e+00  0.0000000000000000e+00 0.0000000000000000e+00 0.0000000000000000e+00  0.0000000000000000e+00 0.0000000000000000e+00 0.0000000000000000e+00  0.0000000000000000e+00 0.0000000000000000e+00 0.0000000000000000e+00  0.0000000000000000e+00 0.0000000000000000e+00 0.0000000000000000e+00  0.0000000000000000e+00 0.0000000000000000e+00 0.0000000000000000e+00  0.0000000000000000e+00 0.0000000000000000e+00 0.0000000000000000e+00  0.0000000000000000e+00 0.0000000000000000e+00 0.0000000000000000e+00  0.0000000000000000e+00 0.0000000000000000e+00 0.0000000000000000e+00  0.0000000000000000e+00 0.0000000000000000e+00 0.0000000000000000e+00  0.0000000000000000e+00 0.0000000000000000e+00 0.0000000000000000e+00  0.0000000000000000e+00 0.0000000000000000e+00 0.0000000000000000e+00  2.1001423157806836e-07 -2.3075977772965511e-07 0.0000000000000000e+00  -9.9327472974754969e-09 1.2664961210834280e-07 0.0000000000000000e+00  1.5311935506814502e-07 3.3192042243765908e-08 0.0000000000000000e+00  -5.6953121633104191e-08 1.3755340592676984e-08 0.0000000000000000e+00  -6.2381373752970307e-08 -1.6062510765034449e-08 0.0000000000000000e+00  -8.0415208144966257e-08 -2.5622546319918360e-08 0.0000000000000000e+00  -1.0516115016821571e-07 -2.2610699023146012e-08 0.0000000000000000e+00  -1.1754809451871298e-07 -1.7373502126488767e-08 0.0000000000000000e+00  -1.3075323548968299e-07 -1.0340019739959709e-08 0.0000000000000000e+00  -1.4441188552988202e-07 -2.8801563954175900e-09 0.0000000000000000e+00  -1.5983021791512480e-07 4.5081097435460415e-09 0.0000000000000000e+00  -1.7840141615329622e-07 1.1714562793720643e-08 0.0000000000000000e+00  -2.0062671126981176e-07 1.8659992154771204e-08 0.0000000000000000e+00  -2.2693786884936230e-07 2.5350579141333791e-08 0.0000000000000000e+00  -2.5760437078908917e-07 3.1828840930115559e-08 0.0000000000000000e+00  -2.9279744685718906e-07 3.8143865167443452e-08 0.0000000000000000e+00  -3.3263460615523733e-07 4.4319951534107580e-08 0.0000000000000000e+00  -3.7715998102740571e-07 5.0318561586056919e-08 0.0000000000000000e+00  -4.2629897889270284e-07 5.6003711094963888e-08 0.0000000000000000e+00  -4.7978138476502784e-07 6.1120910858603999e-08 0.0000000000000000e+00  -5.3704948574385263e-07 6.5301245098392021e-08 0.0000000000000000e+00  -5.9717833930777711e-07 6.8097938303591649e-08 0.0000000000000000e+00  -6.5883414948955978e-07 6.9053127680158338e-08 0.0000000000000000e+00  -7.2029984016823404e-07 6.7781067885945239e-08 0.0000000000000000e+00  -7.7956535765168135e-07 6.4046052341647503e-08 0.0000000000000000e+00  -8.3449255470968825e-07 5.7811953064538607e-08 0.0000000000000000e+00  -8.8297845044435594e-07 4.9251961812084911e-08 0.0000000000000000e+00  -9.2317175726946960e-07 3.8711825544839607e-08 0.0000000000000000e+00  -9.5351491196037543e-07 2.6655319702642829e-08 0.0000000000000000e+00  -9.7299278586689589e-07 1.3571137855944642e-08 0.0000000000000000e+00  -9.8075936379009441e-07 -4.5149118695529127e-11 0.0000000000000000e+00  -9.7687165860402789e-07 -1.3844552227140627e-08 0.0000000000000000e+00  -9.6059941809993884e-07 -2.7394638414173305e-08 0.0000000000000000e+00  -9.3369247025938717e-07 -4.0740337944010032e-08 0.0000000000000000e+00  -8.9338385355163240e-07 -5.3114050785893743e-08 0.0000000000000000e+00  -8.4665776138921764e-07 -6.5718254320052287e-08 0.0000000000000000e+00  -7.8069277217522807e-07 -7.5461065702239018e-08 0.0000000000000000e+00  -7.2363542978595311e-07 -8.8499683491825227e-08 0.0000000000000000e+00  -6.1993258565015022e-07 -9.0641637736355498e-08 0.0000000000000000e+00  -5.8508453816465033e-07 -1.1073993632367572e-07 0.0000000000000000e+00  -3.8773302359826705e-07 -8.5192542189483818e-08 0.0000000000000000e+00  -4.9653139095381254e-07 -1.4333417434351800e-07 0.0000000000000000e+00  1.9236769374364662e-08 -1.2550614347534599e-08 0.0000000000000000e+00  -7.1874723944350554e-07 -2.4936402703599260e-07 0.0000000000000000e+00  8.8879706936524582e-07 2.5405779503484639e-07 0.0000000000000000e+00  -2.7232445801548050e-06 -8.5264025249330119e-07 0.0000000000000000e+00  3.1244960793508222e-06 1.2490843201537239e-06 0.0000000000000000e+00  0.0000000000000000e+00 0.0000000000000000e+00 0.0000000000000000e+00  0.0000000000000000e+00 0.0000000000000000e+00 0.0000000000000000e+00  -1.5677552847717148e-06 4.5436894033567273e-07 0.0000000000000000e+00  8.4322771983783629e-07 -7.8268737919309418e-08 0.0000000000000000e+00  3.3107591084295726e-08 1.3278684151450924e-07 0.0000000000000000e+00  -1.2085596010565732e-07 4.9789736481373820e-08 0.0000000000000000e+00  -1.2979971965582984e-07 4.9056716544626268e-09 0.0000000000000000e+00  -2.0818427076281551e-07 -1.4797334603020583e-08 0.0000000000000000e+00  -2.3038597687740999e-07 -2.2324396699609026e-08 0.0000000000000000e+00  -2.4660409109314690e-07 -2.1140861648811477e-08 0.0000000000000000e+00  -2.6041454192950658e-07 -1.4436297139389325e-08 0.0000000000000000e+00  -2.7177601122750585e-07 -4.7768994212736871e-09 0.0000000000000000e+00  -2.8525071432070964e-07 6.7322494962155970e-09 0.0000000000000000e+00  -3.0177535212787886e-07 1.9252879977469319e-08 0.0000000000000000e+00  -3.2224759062914236e-07 3.2262671954256340e-08 0.0000000000000000e+00  -3.4727358728286967e-07 4.5462773616861066e-08 0.0000000000000000e+00  -3.7713627148528638e-07 5.8690806720583128e-08 0.0000000000000000e+00  -4.1201212044218435e-07 7.1860826927676322e-08 0.0000000000000000e+00  -4.5197654809486909e-07 8.4888248136580382e-08 0.0000000000000000e+00  -4.9701189743136246e-07 9.7606989567696418e-08 0.0000000000000000e+00  -5.4696886047585138e-07 1.0968963978583104e-07 0.0000000000000000e+00  -6.0148225078313359e-07 1.2059151248231991e-07 0.0000000000000000e+00  -6.5986399188430362e-07 1.2954437193014941e-07 0.0000000000000000e+00  -7.2100444682472495e-07 1.3561899305509213e-07 0.0000000000000000e+00  -7.8331984030845155e-07 1.3785588493608527e-07 0.0000000000000000e+00  -8.4478735031086459e-07 1.3543735802713163e-07 0.0000000000000000e+00  -9.0306761570587949e-07 1.2785382844888216e-07 0.0000000000000000e+00  -9.5572323284559109e-07 1.1501332463305792e-07 0.0000000000000000e+00  -1.0004328584229532e-06 9.7264256949667220e-08 0.0000000000000000e+00  -1.0352553614562342e-06 7.5322990394372130e-08 0.0000000000000000e+00  -1.0586711732964404e-06 5.0150091319963117e-08 0.0000000000000000e+00  -1.0698446607494843e-06 2.2775906126168563e-08 0.0000000000000000e+00  -1.0681651727814947e-06 -5.7860450058992684e-09 0.0000000000000000e+00  -1.0540421698978333e-06 -3.4740818607295427e-08 0.0000000000000000e+00  -1.0269919013388710e-06 -6.3295280856986374e-08 0.0000000000000000e+00  -9.8924067961731048e-07 -9.1215647239703631e-08 0.0000000000000000e+00  -9.3805595537312486e-07 -1.1751427451991558e-07 0.0000000000000000e+00  -8.8125186432589573e-07 -1.4316717157699841e-07 0.0000000000000000e+00  -8.0539678680629515e-07 -1.6493447169225070e-07 0.0000000000000000e+00  -7.4066496121290852e-07 -1.8847444861231531e-07 0.0000000000000000e+00  -6.2897826177377175e-07 -1.9983269072377880e-07 0.0000000000000000e+00  -5.9145449056559699e-07 -2.2594154770873086e-07 0.0000000000000000e+00  -3.8842240570951458e-07 -2.0639655154615499e-07 0.0000000000000000e+00  -5.0532049398578210e-07 -2.6251608850007062e-07 0.0000000000000000e+00  1.2587160327049470e-08 -1.4080654786269090e-07 0.0000000000000000e+00  -7.5206424028503935e-07 -3.6126189887505364e-07 0.0000000000000000e+00  8.1066603642472854e-07 9.0817366208717391e-08 0.0000000000000000e+00  -2.6291276320335101e-06 -8.1587421800275303e-07 0.0000000000000000e+00  3.2417880867286391e-06 1.1594610300317529e-06 0.0000000000000000e+00  0.0000000000000000e+00 0.0000000000000000e+00 0.0000000000000000e+00  0.0000000000000000e+00 0.0000000000000000e+00 0.0000000000000000e+00  -2.9034720424940174e-06 9.0594457605883830e-07 0.0000000000000000e+00  1.7198438778975947e-06 -2.4714927498383390e-07 0.0000000000000000e+00  -3.8066025703662894e-07 2.7684389512111944e-07 0.0000000000000000e+00  6.4962681755495690e-08 5.5165804003864723e-08 0.0000000000000000e+00  -7.4267782274728840e-08 5.3365817268170599e-08 0.0000000000000000e+00  -1.3643799814882098e-07 1.2550103452046457e-08 0.0000000000000000e+00  -1.6258479405217190e-07 -2.1812070152828542e-09 0.0000000000000000e+00  -2.0667329288043192e-07 -4.9898497431708180e-09 0.0000000000000000e+00  -2.3752821197777050e-07 9.8327312299872408e-11 0.0000000000000000e+00  -2.6568224567448569e-07 1.0575654330136989e-08 0.0000000000000000e+00  -2.9263573490178393e-07 2.4371940747295654e-08 0.0000000000000000e+00  -3.1906318181520086e-07 4.0112375543757108e-08 0.0000000000000000e+00  -3.4660659946829514e-07 5.6921857579851640e-08 0.0000000000000000e+00  -3.7599299098496132e-07 7.4239022472426427e-08 0.0000000000000000e+00  -4.0780918206314164e-07 9.1741442533280247e-08 0.0000000000000000e+00  -4.4246989013479787e-07 1.0924958180847456e-07 0.0000000000000000e+00  -4.8024091927303966e-07 1.2661992022225134e-07 0.0000000000000000e+00  -5.2128634690087323e-07 1.4361999323794898e-07 0.0000000000000000e+00  -5.6563178439569518e-07 1.5979849410269748e-07 0.0000000000000000e+00  -6.1308465059486522e-07 1.7438344041140159e-07 0.0000000000000000e+00  -6.6311419072585193e-07 1.8625425606851477e-07 0.0000000000000000e+00  -7.1473137183983697e-07 1.9402662585231495e-07 0.0000000000000000e+00  -7.6642259485668445e-07 1.9625607881573278e-07 0.0000000000000000e+00  -8.1619565716438806e-07 1.9171762647816274e-07 0.0000000000000000e+00  -8.6174464398368847e-07 1.7967864015160028e-07 0.0000000000000000e+00  -9.0073375428860885e-07 1.6007420172756715e-07 0.0000000000000000e+00  -9.3107221989195565e-07 1.3353125673812003e-07 0.0000000000000000e+00  -9.5121394060240460e-07 1.0123597967641638e-07 0.0000000000000000e+00  -9.6018413292225050e-07 6.4713978841270019e-08 0.0000000000000000e+00  -9.5780447721539180e-07 2.5557237405253194e-08 0.0000000000000000e+00  -9.4415131722549489e-07 -1.4736644178207830e-08 0.0000000000000000e+00  -9.2032651740616601e-07 -5.5003263274143498e-08 0.0000000000000000e+00  -8.8643782225071294e-07 -9.4200004709709939e-08 0.0000000000000000e+00  -8.4530761240322840e-07 -1.3193197133835834e-07 0.0000000000000000e+00  -7.9458884064866667e-07 -1.6713472553110912e-07 0.0000000000000000e+00  -7.4266231739778488e-07 -2.0066981773170397e-07 0.0000000000000000e+00  -6.7623534649645287e-07 -2.2935712368788224e-07 0.0000000000000000e+00  -6.2613728447791681e-07 -2.5845635154654457e-07 0.0000000000000000e+00  -5.3426163322778851e-07 -2.7478458056602762e-07 0.0000000000000000e+00  -5.2176487380560094e-07 -3.0333967305422879e-07 0.0000000000000000e+00  -3.5096448408451343e-07 -2.8905284497141545e-07 0.0000000000000000e+00  -4.9976553792001256e-07 -3.4300927135822712e-07 0.0000000000000000e+00  -3.2916522576569645e-08 -2.4085487589969880e-07 0.0000000000000000e+00  -8.1664692296715937e-07 -4.4629987008626541e-07 0.0000000000000000e+00  6.6475646280947509e-07 -6.7323316453075020e-08 0.0000000000000000e+00  -2.7040180259651025e-06 -8.3363292918682769e-07 0.0000000000000000e+00  2.9014554311685870e-06 8.9083936705233899e-07 0.0000000000000000e+00  0.0000000000000000e+00 0.0000000000000000e+00 0.0000000000000000e+00  0.0000000000000000e+00 0.0000000000000000e+00 0.0000000000000000e+00  -3.2307728723702456e-06 9.5115590775999081e-07 0.0000000000000000e+00  2.2967756607344479e-06 -3.1484712159545270e-07 0.0000000000000000e+00  -7.8154781819304302e-07 3.3425881716833507e-07 0.0000000000000000e+00  2.6523233192716506e-07 4.1535334167422205e-08 0.0000000000000000e+00  -1.7772319856006714e-07 1.1900257678079845e-07 0.0000000000000000e+00  -1.0736003273016164e-07 5.2240636748942112e-08 0.0000000000000000e+00  -1.5843773722255219e-07 4.2500939878440487e-08 0.0000000000000000e+00  -2.0103665364656041e-07 3.1764801959345578e-08 0.0000000000000000e+00  -2.3159888145170478e-07 3.2543352973066800e-08 0.0000000000000000e+00  -2.6481574136766626e-07 3.9916562820388142e-08 0.0000000000000000e+00  -2.9435466659351384e-07 5.2123913854671549e-08 0.0000000000000000e+00  -3.2298465005397646e-07 6.7594724903138261e-08 0.0000000000000000e+00  -3.5157005179471632e-07 8.5108675697133510e-08 0.0000000000000000e+00  -3.8062883513178392e-07 1.0383857288882362e-07 0.0000000000000000e+00  -4.1079251920123604e-07 1.2324158019491922e-07 0.0000000000000000e+00  -4.4242561555864608e-07 1.4298774142199284e-07 0.0000000000000000e+00  -4.7582262252529015e-07 1.6283619294367260e-07 0.0000000000000000e+00  -5.1121337667446523e-07 1.8247405024840702e-07 0.0000000000000000e+00  -5.4873556810355655e-07 2.0132804085591634e-07 0.0000000000000000e+00  -5.8834905847498381e-07 2.1839597801807398e-07 0.0000000000000000e+00  -6.2967779704005017e-07 2.3217552180395532e-07 0.0000000000000000e+00  -6.7183827483377550e-07 2.4076469841700018e-07 0.0000000000000000e+00  -7.1333178491276028e-07 2.4215827985569671e-07 0.0000000000000000e+00  -7.5209368868821537e-07 2.3467618881499755e-07 0.0000000000000000e+00  -7.8572063238582630e-07 2.1738324148085415e-07 0.0000000000000000e+00  -8.1186187609216110e-07 1.9034487292634351e-07 0.0000000000000000e+00  -8.2859239439756183e-07 1.5463107119830124e-07 0.0000000000000000e+00  -8.3476827572725915e-07 1.1207680989526691e-07 0.0000000000000000e+00  -8.3001433912634060e-07 6.4916893467887164e-08 0.0000000000000000e+00  -8.1489176626305213e-07 1.5383069663579297e-08 0.0000000000000000e+00  -7.9019870870449683e-07 -3.4536484160000733e-08 0.0000000000000000e+00  -7.5775330056408050e-07 -8.3357325496304448e-08 0.0000000000000000e+00  -7.1812042477642579e-07 -1.2986688840770835e-07 0.0000000000000000e+00  -6.7468437321197543e-07 -1.7359654501851607e-07 0.0000000000000000e+00  -6.2503070402044721e-07 -2.1348133854570221e-07 0.0000000000000000e+00  -5.7826816947519721e-07 -2.5034520199568143e-07 0.0000000000000000e+00  -5.1995806321061677e-07 -2.8111940319703376e-07 0.0000000000000000e+00  -4.8293864743426042e-07 -3.1081998013073562e-07 0.0000000000000000e+00  -4.0486104202223134e-07 -3.2703434544580993e-07 0.0000000000000000e+00  -4.1360070576661523e-07 -3.5349546664542884e-07 0.0000000000000000e+00  -2.5775220835772288e-07 -3.3955845457565943e-07 0.0000000000000000e+00  -4.3672043740530088e-07 -3.8912073060576883e-07 0.0000000000000000e+00  2.4339394508539136e-08 -2.9862438136196441e-07 0.0000000000000000e+00  -7.9879538110850689e-07 -4.8920519508321179e-07 0.0000000000000000e+00  6.9581386257440540e-07 -1.5570439233746001e-07 0.0000000000000000e+00  -2.7035319955329499e-06 -8.1815938821524337e-07 0.0000000000000000e+00  2.8925398867574286e-06 7.2459893316562338e-07 0.0000000000000000e+00  0.0000000000000000e+00 0.0000000000000000e+00 0.0000000000000000e+00  0.0000000000000000e+00 0.0000000000000000e+00 0.0000000000000000e+00  -3.1875590586161539e-06 8.7897216272151357e-07 0.0000000000000000e+00  2.5292280319669898e-06 -2.9166799975457539e-07 0.0000000000000000e+00  -9.5939359862367602e-07 3.1791852532723352e-07 0.0000000000000000e+00  4.4380765614294774e-07 3.2306215891811666e-08 0.0000000000000000e+00  -2.7809168381907836e-07 1.6124070049071401e-07 0.0000000000000000e+00  -3.3901923495514301e-08 7.9717997556146509e-08 0.0000000000000000e+00  -1.5149451229488724e-07 8.5017077472060634e-08 0.0000000000000000e+00  -1.6499456894995594e-07 6.7195601967253045e-08 0.0000000000000000e+00  -2.0035044570669819e-07 6.7260463872602338e-08 0.0000000000000000e+00  -2.3461767064348610e-07 7.1705989016057025e-08 0.0000000000000000e+00  -2.6493685053466826e-07 8.2290285394499606e-08 0.0000000000000000e+00  -2.9522465865343756e-07 9.6794990359233162e-08 0.0000000000000000e+00  -3.2438869098370957e-07 1.1403757830590748e-07 0.0000000000000000e+00  -3.5324919097529120e-07 1.3302960862845641e-07 0.0000000000000000e+00  -3.8219933419824244e-07 1.5307312552523914e-07 0.0000000000000000e+00  -4.1150375820211717e-07 1.7374108780440280e-07 0.0000000000000000e+00  -4.4145388743536889e-07 1.9474763019055433e-07 0.0000000000000000e+00  -4.7231534073214407e-07 2.1577130554016903e-07 0.0000000000000000e+00  -5.0435002436665808e-07 2.3619569735622875e-07 0.0000000000000000e+00  -5.3770677038607566e-07 2.5484341561439278e-07 0.0000000000000000e+00  -5.7220632586558336e-07 2.6982183060494403e-07 0.0000000000000000e+00  -6.0707913875372359e-07 2.7862359502586575e-07 0.0000000000000000e+00  -6.4077721544475371e-07 2.7855007523364501e-07 0.0000000000000000e+00  -6.7101867780252232e-07 2.6736542131114353e-07 0.0000000000000000e+00  -6.9511748923521199e-07 2.4393958881699656e-07 0.0000000000000000e+00  -7.1055501928659255e-07 2.0861094027048746e-07 0.0000000000000000e+00  -7.1551650848265899e-07 1.6312979777964857e-07 0.0000000000000000e+00  -7.0931682742553345e-07 1.1022941074318732e-07 0.0000000000000000e+00  -6.9231511635118496e-07 5.3035420404932696e-08 0.0000000000000000e+00  -6.6595253427153222e-07 -5.5119080586946257e-09 0.0000000000000000e+00  -6.3185258082944936e-07 -6.2977737988786223e-08 0.0000000000000000e+00  -5.9255747322058141e-07 -1.1768495670032442e-07 0.0000000000000000e+00  -5.4905893367267520e-07 -1.6841998586268375e-07 0.0000000000000000e+00  -5.0512994661120747e-07 -2.1482015663341571e-07 0.0000000000000000e+00  -4.582