<?xml version="1.0"?>
<VTKFile type="UnstructuredGrid"  version="0.1"  >
<UnstructuredGrid>
<Piece  NumberOfPoints="1617" NumberOfCells="3072">
<Points>
<DataArray  type="Float64"  NumberOfComponents="3"  format="ascii">0 0 0  0.03125 0 0  0.0625 0 0  0.09375 0 0  0.125 0 0  0.15625 0 0  0.1875 0 0  0.21875 0 0  0.25 0 0  0.28125 0 0  0.3125 0 0  0.34375 0 0  0.375 0 0  0.40625 0 0  0.4375 0 0  0.46875 0 0  0.5 0 0  0.53125 0 0  0.5625 0 0  0.59375 0 0  0.625 0 0  0.65625 0 0  0.6875 0 0  0.71875 0 0  0.75 0 0  0.78125 0 0  0.8125 0 0  0.84375 0 0  0.875 0 0  0.90625 0 0  0.9375 0 0  0.96875 0 0  1 0 0  1.03125 0 0  1.0625 0 0  1.09375 0 0  1.125 0 0  1.15625 0 0  1.1875 0 0  1.21875 0 0  1.25 0 0  1.28125 0 0  1.3125 0 0  1.34375 0 0  1.375 0 0  1.40625 0 0  1.4375 0 0  1.46875 0 0  1.5 0 0  0 0.03125 0  0.03125 0.03125 0  0.0625 0.03125 0  0.09375 0.03125 0  0.125 0.03125 0  0.15625 0.03125 0  0.1875 0.03125 0  0.21875 0.03125 0  0.25 0.03125 0  0.28125 0.03125 0  0.3125 0.03125 0  0.34375 0.03125 0  0.375 0.03125 0  0.40625 0.03125 0  0.4375 0.03125 0  0.46875 0.03125 0  0.5 0.03125 0  0.53125 0.03125 0  0.5625 0.03125 0  0.59375 0.03125 0  0.625 0.03125 0  0.65625 0.03125 0  0.6875 0.03125 0  0.71875 0.03125 0  0.75 0.03125 0  0.78125 0.03125 0  0.8125 0.03125 0  0.84375 0.03125 0  0.875 0.03125 0  0.90625 0.03125 0  0.9375 0.03125 0  0.96875 0.03125 0  1 0.03125 0  1.03125 0.03125 0  1.0625 0.03125 0  1.09375 0.03125 0  1.125 0.03125 0  1.15625 0.03125 0  1.1875 0.03125 0  1.21875 0.03125 0  1.25 0.03125 0  1.28125 0.03125 0  1.3125 0.03125 0  1.34375 0.03125 0  1.375 0.03125 0  1.40625 0.03125 0  1.4375 0.03125 0  1.46875 0.03125 0  1.5 0.03125 0  0 0.0625 0  0.03125 0.0625 0  0.0625 0.0625 0  0.09375 0.0625 0  0.125 0.0625 0  0.15625 0.0625 0  0.1875 0.0625 0  0.21875 0.0625 0  0.25 0.0625 0  0.28125 0.0625 0  0.3125 0.0625 0  0.34375 0.0625 0  0.375 0.0625 0  0.40625 0.0625 0  0.4375 0.0625 0  0.46875 0.0625 0  0.5 0.0625 0  0.53125 0.0625 0  0.5625 0.0625 0  0.59375 0.0625 0  0.625 0.0625 0  0.65625 0.0625 0  0.6875 0.0625 0  0.71875 0.0625 0  0.75 0.0625 0  0.78125 0.0625 0  0.8125 0.0625 0  0.84375 0.0625 0  0.875 0.0625 0  0.90625 0.0625 0  0.9375 0.0625 0  0.96875 0.0625 0  1 0.0625 0  1.03125 0.0625 0  1.0625 0.0625 0  1.09375 0.0625 0  1.125 0.0625 0  1.15625 0.0625 0  1.1875 0.0625 0  1.21875 0.0625 0  1.25 0.0625 0  1.28125 0.0625 0  1.3125 0.0625 0  1.34375 0.0625 0  1.375 0.0625 0  1.40625 0.0625 0  1.4375 0.0625 0  1.46875 0.0625 0  1.5 0.0625 0  0 0.09375 0  0.03125 0.09375 0  0.0625 0.09375 0  0.09375 0.09375 0  0.125 0.09375 0  0.15625 0.09375 0  0.1875 0.09375 0  0.21875 0.09375 0  0.25 0.09375 0  0.28125 0.09375 0  0.3125 0.09375 0  0.34375 0.09375 0  0.375 0.09375 0  0.40625 0.09375 0  0.4375 0.09375 0  0.46875 0.09375 0  0.5 0.09375 0  0.53125 0.09375 0  0.5625 0.09375 0  0.59375 0.09375 0  0.625 0.09375 0  0.65625 0.09375 0  0.6875 0.09375 0  0.71875 0.09375 0  0.75 0.09375 0  0.78125 0.09375 0  0.8125 0.09375 0  0.84375 0.09375 0  0.875 0.09375 0  0.90625 0.09375 0  0.9375 0.09375 0  0.96875 0.09375 0  1 0.09375 0  1.03125 0.09375 0  1.0625 0.09375 0  1.09375 0.09375 0  1.125 0.09375 0  1.15625 0.09375 0  1.1875 0.09375 0  1.21875 0.09375 0  1.25 0.09375 0  1.28125 0.09375 0  1.3125 0.09375 0  1.34375 0.09375 0  1.375 0.09375 0  1.40625 0.09375 0  1.4375 0.09375 0  1.46875 0.09375 0  1.5 0.09375 0  0 0.125 0  0.03125 0.125 0  0.0625 0.125 0  0.09375 0.125 0  0.125 0.125 0  0.15625 0.125 0  0.1875 0.125 0  0.21875 0.125 0  0.25 0.125 0  0.28125 0.125 0  0.3125 0.125 0  0.34375 0.125 0  0.375 0.125 0  0.40625 0.125 0  0.4375 0.125 0  0.46875 0.125 0  0.5 0.125 0  0.53125 0.125 0  0.5625 0.125 0  0.59375 0.125 0  0.625 0.125 0  0.65625 0.125 0  0.6875 0.125 0  0.71875 0.125 0  0.75 0.125 0  0.78125 0.125 0  0.8125 0.125 0  0.84375 0.125 0  0.875 0.125 0  0.90625 0.125 0  0.9375 0.125 0  0.96875 0.125 0  1 0.125 0  1.03125 0.125 0  1.0625 0.125 0  1.09375 0.125 0  1.125 0.125 0  1.15625 0.125 0  1.1875 0.125 0  1.21875 0.125 0  1.25 0.125 0  1.28125 0.125 0  1.3125 0.125 0  1.34375 0.125 0  1.375 0.125 0  1.40625 0.125 0  1.4375 0.125 0  1.46875 0.125 0  1.5 0.125 0  0 0.15625 0  0.03125 0.15625 0  0.0625 0.15625 0  0.09375 0.15625 0  0.125 0.15625 0  0.15625 0.15625 0  0.1875 0.15625 0  0.21875 0.15625 0  0.25 0.15625 0  0.28125 0.15625 0  0.3125 0.15625 0  0.34375 0.15625 0  0.375 0.15625 0  0.40625 0.15625 0  0.4375 0.15625 0  0.46875 0.15625 0  0.5 0.15625 0  0.53125 0.15625 0  0.5625 0.15625 0  0.59375 0.15625 0  0.625 0.15625 0  0.65625 0.15625 0  0.6875 0.15625 0  0.71875 0.15625 0  0.75 0.15625 0  0.78125 0.15625 0  0.8125 0.15625 0  0.84375 0.15625 0  0.875 0.15625 0  0.90625 0.15625 0  0.9375 0.15625 0  0.96875 0.15625 0  1 0.15625 0  1.03125 0.15625 0  1.0625 0.15625 0  1.09375 0.15625 0  1.125 0.15625 0  1.15625 0.15625 0  1.1875 0.15625 0  1.21875 0.15625 0  1.25 0.15625 0  1.28125 0.15625 0  1.3125 0.15625 0  1.34375 0.15625 0  1.375 0.15625 0  1.40625 0.15625 0  1.4375 0.15625 0  1.46875 0.15625 0  1.5 0.15625 0  0 0.1875 0  0.03125 0.1875 0  0.0625 0.1875 0  0.09375 0.1875 0  0.125 0.1875 0  0.15625 0.1875 0  0.1875 0.1875 0  0.21875 0.1875 0  0.25 0.1875 0  0.28125 0.1875 0  0.3125 0.1875 0  0.34375 0.1875 0  0.375 0.1875 0  0.40625 0.1875 0  0.4375 0.1875 0  0.46875 0.1875 0  0.5 0.1875 0  0.53125 0.1875 0  0.5625 0.1875 0  0.59375 0.1875 0  0.625 0.1875 0  0.65625 0.1875 0  0.6875 0.1875 0  0.71875 0.1875 0  0.75 0.1875 0  0.78125 0.1875 0  0.8125 0.1875 0  0.84375 0.1875 0  0.875 0.1875 0  0.90625 0.1875 0  0.9375 0.1875 0  0.96875 0.1875 0  1 0.1875 0  1.03125 0.1875 0  1.0625 0.1875 0  1.09375 0.1875 0  1.125 0.1875 0  1.15625 0.1875 0  1.1875 0.1875 0  1.21875 0.1875 0  1.25 0.1875 0  1.28125 0.1875 0  1.3125 0.1875 0  1.34375 0.1875 0  1.375 0.1875 0  1.40625 0.1875 0  1.4375 0.1875 0  1.46875 0.1875 0  1.5 0.1875 0  0 0.21875 0  0.03125 0.21875 0  0.0625 0.21875 0  0.09375 0.21875 0  0.125 0.21875 0  0.15625 0.21875 0  0.1875 0.21875 0  0.21875 0.21875 0  0.25 0.21875 0  0.28125 0.21875 0  0.3125 0.21875 0  0.34375 0.21875 0  0.375 0.21875 0  0.40625 0.21875 0  0.4375 0.21875 0  0.46875 0.21875 0  0.5 0.21875 0  0.53125 0.21875 0  0.5625 0.21875 0  0.59375 0.21875 0  0.625 0.21875 0  0.65625 0.21875 0  0.6875 0.21875 0  0.71875 0.21875 0  0.75 0.21875 0  0.78125 0.21875 0  0.8125 0.21875 0  0.84375 0.21875 0  0.875 0.21875 0  0.90625 0.21875 0  0.9375 0.21875 0  0.96875 0.21875 0  1 0.21875 0  1.03125 0.21875 0  1.0625 0.21875 0  1.09375 0.21875 0  1.125 0.21875 0  1.15625 0.21875 0  1.1875 0.21875 0  1.21875 0.21875 0  1.25 0.21875 0  1.28125 0.21875 0  1.3125 0.21875 0  1.34375 0.21875 0  1.375 0.21875 0  1.40625 0.21875 0  1.4375 0.21875 0  1.46875 0.21875 0  1.5 0.21875 0  0 0.25 0  0.03125 0.25 0  0.0625 0.25 0  0.09375 0.25 0  0.125 0.25 0  0.15625 0.25 0  0.1875 0.25 0  0.21875 0.25 0  0.25 0.25 0  0.28125 0.25 0  0.3125 0.25 0  0.34375 0.25 0  0.375 0.25 0  0.40625 0.25 0  0.4375 0.25 0  0.46875 0.25 0  0.5 0.25 0  0.53125 0.25 0  0.5625 0.25 0  0.59375 0.25 0  0.625 0.25 0  0.65625 0.25 0  0.6875 0.25 0  0.71875 0.25 0  0.75 0.25 0  0.78125 0.25 0  0.8125 0.25 0  0.84375 0.25 0  0.875 0.25 0  0.90625 0.25 0  0.9375 0.25 0  0.96875 0.25 0  1 0.25 0  1.03125 0.25 0  1.0625 0.25 0  1.09375 0.25 0  1.125 0.25 0  1.15625 0.25 0  1.1875 0.25 0  1.21875 0.25 0  1.25 0.25 0  1.28125 0.25 0  1.3125 0.25 0  1.34375 0.25 0  1.375 0.25 0  1.40625 0.25 0  1.4375 0.25 0  1.46875 0.25 0  1.5 0.25 0  0 0.28125 0  0.03125 0.28125 0  0.0625 0.28125 0  0.09375 0.28125 0  0.125 0.28125 0  0.15625 0.28125 0  0.1875 0.28125 0  0.21875 0.28125 0  0.25 0.28125 0  0.28125 0.28125 0  0.3125 0.28125 0  0.34375 0.28125 0  0.375 0.28125 0  0.40625 0.28125 0  0.4375 0.28125 0  0.46875 0.28125 0  0.5 0.28125 0  0.53125 0.28125 0  0.5625 0.28125 0  0.59375 0.28125 0  0.625 0.28125 0  0.65625 0.28125 0  0.6875 0.28125 0  0.71875 0.28125 0  0.75 0.28125 0  0.78125 0.28125 0  0.8125 0.28125 0  0.84375 0.28125 0  0.875 0.28125 0  0.90625 0.28125 0  0.9375 0.28125 0  0.96875 0.28125 0  1 0.28125 0  1.03125 0.28125 0  1.0625 0.28125 0  1.09375 0.28125 0  1.125 0.28125 0  1.15625 0.28125 0  1.1875 0.28125 0  1.21875 0.28125 0  1.25 0.28125 0  1.28125 0.28125 0  1.3125 0.28125 0  1.34375 0.28125 0  1.375 0.28125 0  1.40625 0.28125 0  1.4375 0.28125 0  1.46875 0.28125 0  1.5 0.28125 0  0 0.3125 0  0.03125 0.3125 0  0.0625 0.3125 0  0.09375 0.3125 0  0.125 0.3125 0  0.15625 0.3125 0  0.1875 0.3125 0  0.21875 0.3125 0  0.25 0.3125 0  0.28125 0.3125 0  0.3125 0.3125 0  0.34375 0.3125 0  0.375 0.3125 0  0.40625 0.3125 0  0.4375 0.3125 0  0.46875 0.3125 0  0.5 0.3125 0  0.53125 0.3125 0  0.5625 0.3125 0  0.59375 0.3125 0  0.625 0.3125 0  0.65625 0.3125 0  0.6875 0.3125 0  0.71875 0.3125 0  0.75 0.3125 0  0.78125 0.3125 0  0.8125 0.3125 0  0.84375 0.3125 0  0.875 0.3125 0  0.90625 0.3125 0  0.9375 0.3125 0  0.96875 0.3125 0  1 0.3125 0  1.03125 0.3125 0  1.0625 0.3125 0  1.09375 0.3125 0  1.125 0.3125 0  1.15625 0.3125 0  1.1875 0.3125 0  1.21875 0.3125 0  1.25 0.3125 0  1.28125 0.3125 0  1.3125 0.3125 0  1.34375 0.3125 0  1.375 0.3125 0  1.40625 0.3125 0  1.4375 0.3125 0  1.46875 0.3125 0  1.5 0.3125 0  0 0.34375 0  0.03125 0.34375 0  0.0625 0.34375 0  0.09375 0.34375 0  0.125 0.34375 0  0.15625 0.34375 0  0.1875 0.34375 0  0.21875 0.34375 0  0.25 0.34375 0  0.28125 0.34375 0  0.3125 0.34375 0  0.34375 0.34375 0  0.375 0.34375 0  0.40625 0.34375 0  0.4375 0.34375 0  0.46875 0.34375 0  0.5 0.34375 0  0.53125 0.34375 0  0.5625 0.34375 0  0.59375 0.34375 0  0.625 0.34375 0  0.65625 0.34375 0  0.6875 0.34375 0  0.71875 0.34375 0  0.75 0.34375 0  0.78125 0.34375 0  0.8125 0.34375 0  0.84375 0.34375 0  0.875 0.34375 0  0.90625 0.34375 0  0.9375 0.34375 0  0.96875 0.34375 0  1 0.34375 0  1.03125 0.34375 0  1.0625 0.34375 0  1.09375 0.34375 0  1.125 0.34375 0  1.15625 0.34375 0  1.1875 0.34375 0  1.21875 0.34375 0  1.25 0.34375 0  1.28125 0.34375 0  1.3125 0.34375 0  1.34375 0.34375 0  1.375 0.34375 0  1
[...]
<PointData  Vectors="f_17"> 
<DataArray  type="Float64"  Name="f_17"  NumberOfComponents="3" format="ascii">0.0000000000000000e+00 0.0000000000000000e+00 0.0000000000000000e+00  0.0000000000000000e+00 0.0000000000000000e+00 0.0000000000000000e+00  0.0000000000000000e+00 0.0000000000000000e+00 0.0000000000000000e+00  0.0000000000000000e+00 0.0000000000000000e+00 0.0000000000000000e+00  0.0000000000000000e+00 0.0000000000000000e+00 0.0000000000000000e+00  0.0000000000000000e+00 0.0000000000000000e+00 0.0000000000000000e+00  0.0000000000000000e+00 0.0000000000000000e+00 0.0000000000000000e+00  0.0000000000000000e+00 0.0000000000000000e+00 0.0000000000000000e+00  0.0000000000000000e+00 0.0000000000000000e+00 0.0000000000000000e+00  0.0000000000000000e+00 0.0000000000000000e+00 0.0000000000000000e+00  0.0000000000000000e+00 0.0000000000000000e+00 0.0000000000000000e+00  0.0000000000000000e+00 0.0000000000000000e+00 0.0000000000000000e+00  0.0000000000000000e+00 0.0000000000000000e+00 0.0000000000000000e+00  0.0000000000000000e+00 0.0000000000000000e+00 0.0000000000000000e+00  0.0000000000000000e+00 0.0000000000000000e+00 0.0000000000000000e+00  0.0000000000000000e+00 0.0000000000000000e+00 0.0000000000000000e+00  0.0000000000000000e+00 0.0000000000000000e+00 0.0000000000000000e+00  0.0000000000000000e+00 0.0000000000000000e+00 0.0000000000000000e+00  0.0000000000000000e+00 0.0000000000000000e+00 0.0000000000000000e+00  0.0000000000000000e+00 0.0000000000000000e+00 0.0000000000000000e+00  0.0000000000000000e+00 0.0000000000000000e+00 0.0000000000000000e+00  0.0000000000000000e+00 0.0000000000000000e+00 0.0000000000000000e+00  0.0000000000000000e+00 0.0000000000000000e+00 0.0000000000000000e+00  0.0000000000000000e+00 0.0000000000000000e+00 0.0000000000000000e+00  0.0000000000000000e+00 0.0000000000000000e+00 0.0000000000000000e+00  0.0000000000000000e+00 0.0000000000000000e+00 0.0000000000000000e+00  0.0000000000000000e+00 0.0000000000000000e+00 0.0000000000000000e+00  0.0000000000000000e+00 0.0000000000000000e+00 0.0000000000000000e+00  0.0000000000000000e+00 0.0000000000000000e+00 0.0000000000000000e+00  0.0000000000000000e+00 0.0000000000000000e+00 0.0000000000000000e+00  0.0000000000000000e+00 0.0000000000000000e+00 0.0000000000000000e+00  0.0000000000000000e+00 0.0000000000000000e+00 0.0000000000000000e+00  0.0000000000000000e+00 0.0000000000000000e+00 0.0000000000000000e+00  0.0000000000000000e+00 0.0000000000000000e+00 0.0000000000000000e+00  0.0000000000000000e+00 0.0000000000000000e+00 0.0000000000000000e+00  0.0000000000000000e+00 0.0000000000000000e+00 0.0000000000000000e+00  0.0000000000000000e+00 0.0000000000000000e+00 0.0000000000000000e+00  0.0000000000000000e+00 0.0000000000000000e+00 0.0000000000000000e+00  0.0000000000000000e+00 0.0000000000000000e+00 0.0000000000000000e+00  0.0000000000000000e+00 0.0000000000000000e+00 0.0000000000000000e+00  0.0000000000000000e+00 0.0000000000000000e+00 0.0000000000000000e+00  0.0000000000000000e+00 0.0000000000000000e+00 0.0000000000000000e+00  0.0000000000000000e+00 0.0000000000000000e+00 0.0000000000000000e+00  0.0000000000000000e+00 0.0000000000000000e+00 0.0000000000000000e+00  0.0000000000000000e+00 0.0000000000000000e+00 0.0000000000000000e+00  0.0000000000000000e+00 0.0000000000000000e+00 0.0000000000000000e+00  0.0000000000000000e+00 0.0000000000000000e+00 0.0000000000000000e+00  0.0000000000000000e+00 0.0000000000000000e+00 0.0000000000000000e+00  0.0000000000000000e+00 0.0000000000000000e+00 0.0000000000000000e+00  0.0000000000000000e+00 0.0000000000000000e+00 0.0000000000000000e+00  2.1947039257519753e-07 1.1554516444671366e-08 0.0000000000000000e+00  -1.2919635641687500e-07 9.7057144230584206e-08 0.0000000000000000e+00  -1.2516214645782495e-07 -2.6248934792785233e-08 0.0000000000000000e+00  -3.2762096723758536e-07 -6.7791106508605594e-08 0.0000000000000000e+00  -3.0924785615266535e-07 -9.5073138661524941e-08 0.0000000000000000e+00  -2.9217289934077177e-07 -9.9618085617302104e-08 0.0000000000000000e+00  -2.7681041564175544e-07 -9.1612518979400016e-08 0.0000000000000000e+00  -2.4974871444850015e-07 -8.1029579345207827e-08 0.0000000000000000e+00  -2.2360363633222376e-07 -6.9524273290191309e-08 0.0000000000000000e+00  -1.9886695347845245e-07 -5.8312244762655308e-08 0.0000000000000000e+00  -1.7691389374482111e-07 -4.7794067588458739e-08 0.0000000000000000e+00  -1.5895474103542281e-07 -3.8003875756370508e-08 0.0000000000000000e+00  -1.4536705384843679e-07 -2.8917107934223294e-08 0.0000000000000000e+00  -1.3642390353188812e-07 -2.0453988013229945e-08 0.0000000000000000e+00  -1.3226526967230077e-07 -1.2512621375138110e-08 0.0000000000000000e+00  -1.3296462713575812e-07 -4.9924392066703013e-09 0.0000000000000000e+00  -1.3857249993836442e-07 2.1816438930825341e-09 0.0000000000000000e+00  -1.4910518066656040e-07 9.0300085272908753e-09 0.0000000000000000e+00  -1.6450928869692266e-07 1.5490256412447815e-08 0.0000000000000000e+00  -1.8459897093548777e-07 2.1399306957736544e-08 0.0000000000000000e+00  -2.0897863129901483e-07 2.6495445845035537e-08 0.0000000000000000e+00  -2.3697335977638711e-07 3.0446622697286608e-08 0.0000000000000000e+00  -2.6758813425897342e-07 3.2903247312517606e-08 0.0000000000000000e+00  -2.9952056916345494e-07 3.3564195320044929e-08 0.0000000000000000e+00  -3.3122404442758607e-07 3.2238341232494748e-08 0.0000000000000000e+00  -3.6103269128055162e-07 2.8883167040268659e-08 0.0000000000000000e+00  -3.8728044781272212e-07 2.3611883480198793e-08 0.0000000000000000e+00  -4.0847323879633744e-07 1.6664082397474905e-08 0.0000000000000000e+00  -4.2330297261479061e-07 8.3641118856224220e-09 0.0000000000000000e+00  -4.3087180370967117e-07 -9.5167258837716536e-10 0.0000000000000000e+00  -4.3033429545756612e-07 -1.0943201208277957e-08 0.0000000000000000e+00  -4.2161076899963325e-07 -2.1392648302560796e-08 0.0000000000000000e+00  -4.0378301607214382e-07 -3.2002608183280413e-08 0.0000000000000000e+00  -3.7824646878638861e-07 -4.2879938376325347e-08 0.0000000000000000e+00  -3.4200433232678416e-07 -5.3418929423296977e-08 0.0000000000000000e+00  -3.0138489399087760e-07 -6.4721904939427312e-08 0.0000000000000000e+00  -2.4362077437339331e-07 -7.4136339747375360e-08 0.0000000000000000e+00  -1.9533361158664677e-07 -8.7089232402854906e-08 0.0000000000000000e+00  -1.0252640633962383e-07 -9.1098740418826899e-08 0.0000000000000000e+00  -7.6196035281010232e-08 -1.1149911403907529e-07 0.0000000000000000e+00  1.0729127757770682e-07 -9.1611980560230708e-08 0.0000000000000000e+00  -6.3888715492470884e-09 -1.4547601276305645e-07 0.0000000000000000e+00  4.8393485401597605e-07 -2.6744035051188089e-08 0.0000000000000000e+00  -2.4842906309916908e-07 -2.3032950144985625e-07 0.0000000000000000e+00  1.3140652815059775e-06 2.5278754242403836e-07 0.0000000000000000e+00  -2.4226929353375113e-06 -7.4048913997791747e-07 0.0000000000000000e+00  2.7101774530568022e-06 1.3741091026552995e-06 0.0000000000000000e+00  0.0000000000000000e+00 0.0000000000000000e+00 0.0000000000000000e+00  0.0000000000000000e+00 0.0000000000000000e+00 0.0000000000000000e+00  -1.1295632638238543e-06 7.1165648609690609e-07 0.0000000000000000e+00  8.5909448560438836e-07 -1.8604755584357080e-08 0.0000000000000000e+00  -1.3866348010810043e-07 1.0349452995514404e-07 0.0000000000000000e+00  -3.1428301526805693e-07 -3.1151842154912819e-08 0.0000000000000000e+00  -3.2626385970182062e-07 -8.9095061245769906e-08 0.0000000000000000e+00  -3.8221654569110271e-07 -1.1437953123755018e-07 0.0000000000000000e+00  -3.7557945458718776e-07 -1.2054284798640224e-07 0.0000000000000000e+00  -3.5687488975103197e-07 -1.1647568488178666e-07 0.0000000000000000e+00  -3.3300841679318268e-07 -1.0674164284943496e-07 0.0000000000000000e+00  -3.0590443391153921e-07 -9.4216434829676727e-08 0.0000000000000000e+00  -2.8048393110963709e-07 -8.0330838047172920e-08 0.0000000000000000e+00  -2.5808141756607985e-07 -6.5916046389866277e-08 0.0000000000000000e+00  -2.3967785937668593e-07 -5.1446785345003651e-08 0.0000000000000000e+00  -2.2586833756528792e-07 -3.7158313685496159e-08 0.0000000000000000e+00  -2.1691267713704675e-07 -2.3140835568308993e-08 0.0000000000000000e+00  -2.1295764469591025e-07 -9.4074365902831603e-09 0.0000000000000000e+00  -2.1407014169704641e-07 4.0406927023648234e-09 0.0000000000000000e+00  -2.2025917934474498e-07 1.7143037975938437e-08 0.0000000000000000e+00  -2.3145480713770976e-07 2.9710676721818690e-08 0.0000000000000000e+00  -2.4744542099080611e-07 4.1375772907915829e-08 0.0000000000000000e+00  -2.6779195579663956e-07 5.1580749920636649e-08 0.0000000000000000e+00  -2.9174470726222014e-07 5.9623528955774005e-08 0.0000000000000000e+00  -3.1819334263136001e-07 6.4758787544395446e-08 0.0000000000000000e+00  -3.4568496640698633e-07 6.6333504043014177e-08 0.0000000000000000e+00  -3.7250914760186389e-07 6.3918663226174539e-08 0.0000000000000000e+00  -3.9686006899246475e-07 5.7396114775040874e-08 0.0000000000000000e+00  -4.1699012981871862e-07 4.6977625965770213e-08 0.0000000000000000e+00  -4.3141282455018924e-07 3.3149649048088423e-08 0.0000000000000000e+00  -4.3891344582416672e-07 1.6580577487827945e-08 0.0000000000000000e+00  -4.3877810418294929e-07 -2.0122782788886773e-09 0.0000000000000000e+00  -4.3037864498577893e-07 -2.1920742375921797e-08 0.0000000000000000e+00  -4.1392041155950412e-07 -4.2604768249572959e-08 0.0000000000000000e+00  -3.8871102430197879e-07 -6.3500471779046133e-08 0.0000000000000000e+00  -3.5650259894953537e-07 -8.4486903105123565e-08 0.0000000000000000e+00  -3.1445617036790146e-07 -1.0477381681728376e-07 0.0000000000000000e+00  -2.6946675181494348e-07 -1.2519012120803491e-07 0.0000000000000000e+00  -2.0883529291068380e-07 -1.4294995113511565e-07 0.0000000000000000e+00  -1.6028792667061693e-07 -1.6270410824432178e-07 0.0000000000000000e+00  -6.9985775566423644e-08 -1.7233041304819938e-07 0.0000000000000000e+00  -5.0654687995115531e-08 -1.9409933513583639e-07 0.0000000000000000e+00  1.1950751963320495e-07 -1.7542772896873458e-07 0.0000000000000000e+00  -1.3736564767583886e-08 -2.1767154973658252e-07 0.0000000000000000e+00  4.3811201412527929e-07 -9.9539133347812158e-08 0.0000000000000000e+00  -3.2737912447419240e-07 -2.6380719186527884e-07 0.0000000000000000e+00  1.0933731722752269e-06 1.8579852104831292e-07 0.0000000000000000e+00  -2.5031679668364942e-06 -5.7847017702593421e-07 0.0000000000000000e+00  2.5437619939699364e-06 1.4433068805116036e-06 0.0000000000000000e+00  0.0000000000000000e+00 0.0000000000000000e+00 0.0000000000000000e+00  0.0000000000000000e+00 0.0000000000000000e+00 0.0000000000000000e+00  -2.1914492987582688e-06 1.1857699311532281e-06 0.0000000000000000e+00  1.8531791592438652e-06 -1.0457449594829673e-07 0.0000000000000000e+00  -3.7662227921285377e-07 2.7443810466443241e-07 0.0000000000000000e+00  9.1044029694979443e-09 -3.0760066594161139e-09 0.0000000000000000e+00  -1.3732530539827017e-07 -4.4792884355812064e-08 0.0000000000000000e+00  -1.9852047547992978e-07 -1.0322878683557795e-07 0.0000000000000000e+00  -2.1418827957811912e-07 -1.2464191880411183e-07 0.0000000000000000e+00  -2.3711313681466457e-07 -1.2998637995867608e-07 0.0000000000000000e+00  -2.4291661387697541e-07 -1.2470905222502625e-07 0.0000000000000000e+00  -2.4279077498175107e-07 -1.1311043044639973e-07 0.0000000000000000e+00  -2.3949101332174340e-07 -9.7988873008591171e-08 0.0000000000000000e+00  -2.3447287512511911e-07 -8.1015474233169377e-08 0.0000000000000000e+00  -2.2966708540252954e-07 -6.3219145681575214e-08 0.0000000000000000e+00  -2.2603243383087543e-07 -4.5182771894188785e-08 0.0000000000000000e+00  -2.2427785626498682e-07 -2.7200280825021700e-08 0.0000000000000000e+00  -2.2490549562211707e-07 -9.3887649067926716e-09 0.0000000000000000e+00  -2.2826711435200895e-07 8.2052692499323287e-09 0.0000000000000000e+00  -2.3462948868105650e-07 2.5489823905152535e-08 0.0000000000000000e+00  -2.4416379068424896e-07 4.2210430576596037e-08 0.0000000000000000e+00  -2.5689203812259383e-07 5.7855289306089160e-08 0.0000000000000000e+00  -2.7259417657664033e-07 7.1620160717447494e-08 0.0000000000000000e+00  -2.9070891274010537e-07 8.2465701087346666e-08 0.0000000000000000e+00  -3.1027279314402276e-07 8.9272955070537837e-08 0.0000000000000000e+00  -3.2994692854243221e-07 9.1062464758066563e-08 0.0000000000000000e+00  -3.4813574969280162e-07 8.7209876234856546e-08 0.0000000000000000e+00  -3.6320109598623114e-07 7.7585163624405794e-08 0.0000000000000000e+00  -3.7366261083077030e-07 6.2574224447488095e-08 0.0000000000000000e+00  -3.7842810609890200e-07 4.2978973669104901e-08 0.0000000000000000e+00  -3.7678983228114622e-07 1.9854079175059111e-08 0.0000000000000000e+00  -3.6862834906743296e-07 -5.6983073220012957e-09 0.0000000000000000e+00  -3.5392781510765636e-07 -3.2636086701143813e-08 0.0000000000000000e+00  -3.3352389688364381e-07 -6.0162456401982970e-08 0.0000000000000000e+00  -3.0726879882703990e-07 -8.7522165048341319e-08 0.0000000000000000e+00  -2.7751949135097627e-07 -1.1445554370172274e-07 0.0000000000000000e+00  -2.4184245635629828e-07 -1.4003302841175597e-07 0.0000000000000000e+00  -2.0785597027770327e-07 -1.6492188664975102e-07 0.0000000000000000e+00  -1.6307367253970162e-07 -1.8612454187391945e-07 0.0000000000000000e+00  -1.3635690989523478e-07 -2.0787191170055529e-07 0.0000000000000000e+00  -7.3747377821255931e-08 -2.1794641216135731e-07 0.0000000000000000e+00  -8.9372502492638739e-08 -2.3721865029076068e-07 0.0000000000000000e+00  3.8139069651941236e-08 -2.1551726000068258e-07 0.0000000000000000e+00  -1.4195203647888858e-07 -2.4793958322833674e-07 0.0000000000000000e+00  2.4703242297318237e-07 -1.3260688610270383e-07 0.0000000000000000e+00  -5.5604718463620773e-07 -2.7517240598926279e-07 0.0000000000000000e+00  7.7579821187909465e-07 1.2383008366993575e-07 0.0000000000000000e+00  -2.7434067018175887e-06 -5.2763351264934229e-07 0.0000000000000000e+00  2.1473209762181673e-06 1.2335496298613779e-06 0.0000000000000000e+00  0.0000000000000000e+00 0.0000000000000000e+00 0.0000000000000000e+00  0.0000000000000000e+00 0.0000000000000000e+00 0.0000000000000000e+00  -2.4428835244147508e-06 1.2225887522971030e-06 0.0000000000000000e+00  2.4761544778692380e-06 -1.3338070127845969e-07 0.0000000000000000e+00  -6.6805582329079705e-07 3.5944650875149567e-07 0.0000000000000000e+00  2.9884303270038776e-07 1.5299702034012349e-08 0.0000000000000000e+00  -1.3129817581441473e-07 2.9164726749983153e-08 0.0000000000000000e+00  -7.9698769155694913e-08 -6.3518280331515074e-08 0.0000000000000000e+00  -1.2868618762856624e-07 -9.0773747606956068e-08 0.0000000000000000e+00  -1.6266123008386859e-07 -1.1052158634639891e-07 0.0000000000000000e+00  -1.7979448100118976e-07 -1.1405286600659340e-07 0.0000000000000000e+00  -1.9486379254585300e-07 -1.0870212522088849e-07 0.0000000000000000e+00  -2.0360491551169148e-07 -9.7266428195661828e-08 0.0000000000000000e+00  -2.0928047215097303e-07 -8.2049844724351607e-08 0.0000000000000000e+00  -2.1329254823426989e-07 -6.4640117257581438e-08 0.0000000000000000e+00  -2.1653033167186243e-07 -4.6025011252410528e-08 0.0000000000000000e+00  -2.1985275946645628e-07 -2.6801714977975389e-08 0.0000000000000000e+00  -2.2382086244370535e-07 -7.2744762874845224e-09 0.0000000000000000e+00  -2.2889520802964234e-07 1.2405417160921333e-08 0.0000000000000000e+00  -2.3547286140313589e-07 3.2084467577750663e-08 0.0000000000000000e+00  -2.4388648675550289e-07 5.1432715934299496e-08 0.0000000000000000e+00  -2.5434823072790569e-07 6.9784844575582369e-08 0.0000000000000000e+00  -2.6682603542908432e-07 8.6060702373497811e-08 0.0000000000000000e+00  -2.8090122833706066e-07 9.8827674759385629e-08 0.0000000000000000e+00  -2.9567265239993316e-07 1.0652617390875778e-07 0.0000000000000000e+00  -3.0978630387623198e-07 1.0780606809539816e-07 0.0000000000000000e+00  -3.2160617624756865e-07 1.0185911739428304e-07 0.0000000000000000e+00  -3.2951711281352650e-07 8.8622291646165775e-08 0.0000000000000000e+00  -3.3220459670392368e-07 6.8784302725941844e-08 0.0000000000000000e+00  -3.2893015824277490e-07 4.3603901481744334e-08 0.0000000000000000e+00  -3.1949529410807722e-07 1.4637003585210679e-08 0.0000000000000000e+00  -3.0440317513971007e-07 -1.6563539139395035e-08 0.0000000000000000e+00  -2.8424662936928166e-07 -4.8609966938654760e-08 0.0000000000000000e+00  -2.6047856995162623e-07 -8.0472547400420605e-08 0.0000000000000000e+00  -2.3336247717769849e-07 -1.1125264003798343e-07 0.0000000000000000e+00  -2.0578701235345126e-07 -1.4058379437828479e-07 0.0000000000000000e+00  -1.7532759538188518e-07 -1.6744750155956537e-07 0.0000000000000000e+00  -1.5033730357241970e-07 -1.9232854731965610e-07 0.0000000000000000e+00  -1.1744469604950552e-07 -2.1213462896374103e-07 0.0000000000000000e+00  -1.0737421336625092e-07 -2.3059530574465817e-07 0.0000000000000000e+00  -6.2554293360130850e-08 -2.3591151575508592e-07 0.0000000000000000e+00  -1.0282218199697657e-07 -2.4742326397669141e-07 0.0000000000000000e+00  5.3570699241544477e-09 -2.1894146792865299e-07 0.0000000000000000e+00  -2.0621122977693854e-07 -2.3905629066280594e-07 0.0000000000000000e+00  1.7509839773942735e-07 -1.2653048828155823e-07 0.0000000000000000e+00  -6.5926755752763983e-07 -2.5106491424170430e-07 0.0000000000000000e+00  7.0040983588264454e-07 1.0087360591081121e-07 0.0000000000000000e+00  -2.8112359559760873e-06 -4.7404872029802569e-07 0.0000000000000000e+00  2.1273928098046527e-06 1.0751919828721814e-06 0.0000000000000000e+00  0.0000000000000000e+00 0.0000000000000000e+00 0.0000000000000000e+00  0.0000000000000000e+00 0.0000000000000000e+00 0.0000000000000000e+00  -2.3915246685941115e-06 1.1096547745942912e-06 0.0000000000000000e+00  2.7236126275068063e-06 -1.1938438434125551e-07 0.0000000000000000e+00  -8.0343552352074623e-07 3.6077170675713587e-07 0.0000000000000000e+00  5.2065781170069922e-07 3.1078882364223875e-08 0.0000000000000000e+00  -1.6599176192475653e-07 8.6156854453012062e-08 0.0000000000000000e+00  4.8078897353399007e-08 -2.6159167769522256e-08 0.0000000000000000e+00  -6.6186415713450628e-08 -4.8413784060677328e-08 0.0000000000000000e+00  -8.0985420514309560e-08 -8.1074283808656316e-08 0.0000000000000000e+00  -1.1031293330483663e-07 -9.0711446738864961e-08 0.0000000000000000e+00  -1.3484682546320372e-07 -9.2132795621284842e-08 0.0000000000000000e+00  -1.5258386304065662e-07 -8.5201938628671279e-08 0.0000000000000000e+00  -1.6767631520337412e-07 -7.3133165005401820e-08 0.0000000000000000e+00  -1.7973482915799354e-07 -5.7657067627712138e-08 0.0000000000000000e+00  -1.8988706432336251e-07 -4.0076324264077667e-08 0.0000000000000000e+00  -1.9882688429164262e-07 -2.1233911476482729e-08 0.0000000000000000e+00  -2.0707068283565602e-07 -1.5845038103765075e-09 0.0000000000000000e+00  -2.1512215159935946e-07 1.8650207533874386e-08 0.0000000000000000e+00  -2.2345356480240460e-07 3.9308710676924662e-08 0.0000000000000000e+00  -2.3254395569312469e-07 6.0047008968066647e-08 0.0000000000000000e+00  -2.4280319255077477e-07 8.0089103499197001e-08 0.0000000000000000e+00  -2.5439846307463322e-07 9.8068240806449573e-08 0.0000000000000000e+00  -2.6703380852997832e-07 1.1208017076196738e-07 0.0000000000000000e+00  -2.7978622815997802e-07 1.2000748318334380e-07 0.0000000000000000e+00  -2.9113303724877701e-07 1.2003810772610774e-07 0.0000000000000000e+00  -2.9921075517980527e-07 1.1117841348100028e-07 0.0000000000000000e+00  -3.0226867586268461e-07 9.3542608989610073e-08 0.0000000000000000e+00  -2.9908166759971464e-07 6.8311376765995316e-08 0.0000000000000000e+00  -2.8928217506508750e-07 3.7401320214502837e-08 0.0000000000000000e+00  -2.7326353562465288e-07 3.0180620266331507e-09 0.0000000000000000e+00  -2.5224145651201202e-07 -3.2775080591931108e-08 0.0000000000000000e+00  -2.2747800980034346e-07 -6.8272787451454439e-08 0.0000000000000000e+00  -2.0102803801515741e-07 -1.0230603513352265e-07 0.0000000000000000e+00  -1.7351299055062813e-07 -1.3395732396341257e-07 0.0000000000000000e+00  -1.4818261210570174e-07 -1.62891