<?xml version="1.0"?>
<VTKFile type="UnstructuredGrid"  version="0.1"  >
<UnstructuredGrid>
<Piece  NumberOfPoints="1617" NumberOfCells="3072">
<Points>
<DataArray  type="Float64"  NumberOfComponents="3"  format="ascii">0 0 0  0.03125 0 0  0.0625 0 0  0.09375 0 0  0.125 0 0  0.15625 0 0  0.1875 0 0  0.21875 0 0  0.25 0 0  0.28125 0 0  0.3125 0 0  0.34375 0 0  0.375 0 0  0.40625 0 0  0.4375 0 0  0.46875 0 0  0.5 0 0  0.53125 0 0  0.5625 0 0  0.59375 0 0  0.625 0 0  0.65625 0 0  0.6875 0 0  0.71875 0 0  0.75 0 0  0.78125 0 0  0.8125 0 0  0.84375 0 0  0.875 0 0  0.90625 0 0  0.9375 0 0  0.96875 0 0  1 0 0  1.03125 0 0  1.0625 0 0  1.09375 0 0  1.125 0 0  1.15625 0 0  1.1875 0 0  1.21875 0 0  1.25 0 0  1.28125 0 0  1.3125 0 0  1.34375 0 0  1.375 0 0  1.40625 0 0  1.4375 0 0  1.46875 0 0  1.5 0 0  0 0.03125 0  0.03125 0.03125 0  0.0625 0.03125 0  0.09375 0.03125 0  0.125 0.03125 0  0.15625 0.03125 0  0.1875 0.03125 0  0.21875 0.03125 0  0.25 0.03125 0  0.28125 0.03125 0  0.3125 0.03125 0  0.34375 0.03125 0  0.375 0.03125 0  0.40625 0.03125 0  0.4375 0.03125 0  0.46875 0.03125 0  0.5 0.03125 0  0.53125 0.03125 0  0.5625 0.03125 0  0.59375 0.03125 0  0.625 0.03125 0  0.65625 0.03125 0  0.6875 0.03125 0  0.71875 0.03125 0  0.75 0.03125 0  0.78125 0.03125 0  0.8125 0.03125 0  0.84375 0.03125 0  0.875 0.03125 0  0.90625 0.03125 0  0.9375 0.03125 0  0.96875 0.03125 0  1 0.03125 0  1.03125 0.03125 0  1.0625 0.03125 0  1.09375 0.03125 0  1.125 0.03125 0  1.15625 0.03125 0  1.1875 0.03125 0  1.21875 0.03125 0  1.25 0.03125 0  1.28125 0.03125 0  1.3125 0.03125 0  1.34375 0.03125 0  1.375 0.03125 0  1.40625 0.03125 0  1.4375 0.03125 0  1.46875 0.03125 0  1.5 0.03125 0  0 0.0625 0  0.03125 0.0625 0  0.0625 0.0625 0  0.09375 0.0625 0  0.125 0.0625 0  0.15625 0.0625 0  0.1875 0.0625 0  0.21875 0.0625 0  0.25 0.0625 0  0.28125 0.0625 0  0.3125 0.0625 0  0.34375 0.0625 0  0.375 0.0625 0  0.40625 0.0625 0  0.4375 0.0625 0  0.46875 0.0625 0  0.5 0.0625 0  0.53125 0.0625 0  0.5625 0.0625 0  0.59375 0.0625 0  0.625 0.0625 0  0.65625 0.0625 0  0.6875 0.0625 0  0.71875 0.0625 0  0.75 0.0625 0  0.78125 0.0625 0  0.8125 0.0625 0  0.84375 0.0625 0  0.875 0.0625 0  0.90625 0.0625 0  0.9375 0.0625 0  0.96875 0.0625 0  1 0.0625 0  1.03125 0.0625 0  1.0625 0.0625 0  1.09375 0.0625 0  1.125 0.0625 0  1.15625 0.0625 0  1.1875 0.0625 0  1.21875 0.0625 0  1.25 0.0625 0  1.28125 0.0625 0  1.3125 0.0625 0  1.34375 0.0625 0  1.375 0.0625 0  1.40625 0.0625 0  1.4375 0.0625 0  1.46875 0.0625 0  1.5 0.0625 0  0 0.09375 0  0.03125 0.09375 0  0.0625 0.09375 0  0.09375 0.09375 0  0.125 0.09375 0  0.15625 0.09375 0  0.1875 0.09375 0  0.21875 0.09375 0  0.25 0.09375 0  0.28125 0.09375 0  0.3125 0.09375 0  0.34375 0.09375 0  0.375 0.09375 0  0.40625 0.09375 0  0.4375 0.09375 0  0.46875 0.09375 0  0.5 0.09375 0  0.53125 0.09375 0  0.5625 0.09375 0  0.59375 0.09375 0  0.625 0.09375 0  0.65625 0.09375 0  0.6875 0.09375 0  0.71875 0.09375 0  0.75 0.09375 0  0.78125 0.09375 0  0.8125 0.09375 0  0.84375 0.09375 0  0.875 0.09375 0  0.90625 0.09375 0  0.9375 0.09375 0  0.96875 0.09375 0  1 0.09375 0  1.03125 0.09375 0  1.0625 0.09375 0  1.09375 0.09375 0  1.125 0.09375 0  1.15625 0.09375 0  1.1875 0.09375 0  1.21875 0.09375 0  1.25 0.09375 0  1.28125 0.09375 0  1.3125 0.09375 0  1.34375 0.09375 0  1.375 0.09375 0  1.40625 0.09375 0  1.4375 0.09375 0  1.46875 0.09375 0  1.5 0.09375 0  0 0.125 0  0.03125 0.125 0  0.0625 0.125 0  0.09375 0.125 0  0.125 0.125 0  0.15625 0.125 0  0.1875 0.125 0  0.21875 0.125 0  0.25 0.125 0  0.28125 0.125 0  0.3125 0.125 0  0.34375 0.125 0  0.375 0.125 0  0.40625 0.125 0  0.4375 0.125 0  0.46875 0.125 0  0.5 0.125 0  0.53125 0.125 0  0.5625 0.125 0  0.59375 0.125 0  0.625 0.125 0  0.65625 0.125 0  0.6875 0.125 0  0.71875 0.125 0  0.75 0.125 0  0.78125 0.125 0  0.8125 0.125 0  0.84375 0.125 0  0.875 0.125 0  0.90625 0.125 0  0.9375 0.125 0  0.96875 0.125 0  1 0.125 0  1.03125 0.125 0  1.0625 0.125 0  1.09375 0.125 0  1.125 0.125 0  1.15625 0.125 0  1.1875 0.125 0  1.21875 0.125 0  1.25 0.125 0  1.28125 0.125 0  1.3125 0.125 0  1.34375 0.125 0  1.375 0.125 0  1.40625 0.125 0  1.4375 0.125 0  1.46875 0.125 0  1.5 0.125 0  0 0.15625 0  0.03125 0.15625 0  0.0625 0.15625 0  0.09375 0.15625 0  0.125 0.15625 0  0.15625 0.15625 0  0.1875 0.15625 0  0.21875 0.15625 0  0.25 0.15625 0  0.28125 0.15625 0  0.3125 0.15625 0  0.34375 0.15625 0  0.375 0.15625 0  0.40625 0.15625 0  0.4375 0.15625 0  0.46875 0.15625 0  0.5 0.15625 0  0.53125 0.15625 0  0.5625 0.15625 0  0.59375 0.15625 0  0.625 0.15625 0  0.65625 0.15625 0  0.6875 0.15625 0  0.71875 0.15625 0  0.75 0.15625 0  0.78125 0.15625 0  0.8125 0.15625 0  0.84375 0.15625 0  0.875 0.15625 0  0.90625 0.15625 0  0.9375 0.15625 0  0.96875 0.15625 0  1 0.15625 0  1.03125 0.15625 0  1.0625 0.15625 0  1.09375 0.15625 0  1.125 0.15625 0  1.15625 0.15625 0  1.1875 0.15625 0  1.21875 0.15625 0  1.25 0.15625 0  1.28125 0.15625 0  1.3125 0.15625 0  1.34375 0.15625 0  1.375 0.15625 0  1.40625 0.15625 0  1.4375 0.15625 0  1.46875 0.15625 0  1.5 0.15625 0  0 0.1875 0  0.03125 0.1875 0  0.0625 0.1875 0  0.09375 0.1875 0  0.125 0.1875 0  0.15625 0.1875 0  0.1875 0.1875 0  0.21875 0.1875 0  0.25 0.1875 0  0.28125 0.1875 0  0.3125 0.1875 0  0.34375 0.1875 0  0.375 0.1875 0  0.40625 0.1875 0  0.4375 0.1875 0  0.46875 0.1875 0  0.5 0.1875 0  0.53125 0.1875 0  0.5625 0.1875 0  0.59375 0.1875 0  0.625 0.1875 0  0.65625 0.1875 0  0.6875 0.1875 0  0.71875 0.1875 0  0.75 0.1875 0  0.78125 0.1875 0  0.8125 0.1875 0  0.84375 0.1875 0  0.875 0.1875 0  0.90625 0.1875 0  0.9375 0.1875 0  0.96875 0.1875 0  1 0.1875 0  1.03125 0.1875 0  1.0625 0.1875 0  1.09375 0.1875 0  1.125 0.1875 0  1.15625 0.1875 0  1.1875 0.1875 0  1.21875 0.1875 0  1.25 0.1875 0  1.28125 0.1875 0  1.3125 0.1875 0  1.34375 0.1875 0  1.375 0.1875 0  1.40625 0.1875 0  1.4375 0.1875 0  1.46875 0.1875 0  1.5 0.1875 0  0 0.21875 0  0.03125 0.21875 0  0.0625 0.21875 0  0.09375 0.21875 0  0.125 0.21875 0  0.15625 0.21875 0  0.1875 0.21875 0  0.21875 0.21875 0  0.25 0.21875 0  0.28125 0.21875 0  0.3125 0.21875 0  0.34375 0.21875 0  0.375 0.21875 0  0.40625 0.21875 0  0.4375 0.21875 0  0.46875 0.21875 0  0.5 0.21875 0  0.53125 0.21875 0  0.5625 0.21875 0  0.59375 0.21875 0  0.625 0.21875 0  0.65625 0.21875 0  0.6875 0.21875 0  0.71875 0.21875 0  0.75 0.21875 0  0.78125 0.21875 0  0.8125 0.21875 0  0.84375 0.21875 0  0.875 0.21875 0  0.90625 0.21875 0  0.9375 0.21875 0  0.96875 0.21875 0  1 0.21875 0  1.03125 0.21875 0  1.0625 0.21875 0  1.09375 0.21875 0  1.125 0.21875 0  1.15625 0.21875 0  1.1875 0.21875 0  1.21875 0.21875 0  1.25 0.21875 0  1.28125 0.21875 0  1.3125 0.21875 0  1.34375 0.21875 0  1.375 0.21875 0  1.40625 0.21875 0  1.4375 0.21875 0  1.46875 0.21875 0  1.5 0.21875 0  0 0.25 0  0.03125 0.25 0  0.0625 0.25 0  0.09375 0.25 0  0.125 0.25 0  0.15625 0.25 0  0.1875 0.25 0  0.21875 0.25 0  0.25 0.25 0  0.28125 0.25 0  0.3125 0.25 0  0.34375 0.25 0  0.375 0.25 0  0.40625 0.25 0  0.4375 0.25 0  0.46875 0.25 0  0.5 0.25 0  0.53125 0.25 0  0.5625 0.25 0  0.59375 0.25 0  0.625 0.25 0  0.65625 0.25 0  0.6875 0.25 0  0.71875 0.25 0  0.75 0.25 0  0.78125 0.25 0  0.8125 0.25 0  0.84375 0.25 0  0.875 0.25 0  0.90625 0.25 0  0.9375 0.25 0  0.96875 0.25 0  1 0.25 0  1.03125 0.25 0  1.0625 0.25 0  1.09375 0.25 0  1.125 0.25 0  1.15625 0.25 0  1.1875 0.25 0  1.21875 0.25 0  1.25 0.25 0  1.28125 0.25 0  1.3125 0.25 0  1.34375 0.25 0  1.375 0.25 0  1.40625 0.25 0  1.4375 0.25 0  1.46875 0.25 0  1.5 0.25 0  0 0.28125 0  0.03125 0.28125 0  0.0625 0.28125 0  0.09375 0.28125 0  0.125 0.28125 0  0.15625 0.28125 0  0.1875 0.28125 0  0.21875 0.28125 0  0.25 0.28125 0  0.28125 0.28125 0  0.3125 0.28125 0  0.34375 0.28125 0  0.375 0.28125 0  0.40625 0.28125 0  0.4375 0.28125 0  0.46875 0.28125 0  0.5 0.28125 0  0.53125 0.28125 0  0.5625 0.28125 0  0.59375 0.28125 0  0.625 0.28125 0  0.65625 0.28125 0  0.6875 0.28125 0  0.71875 0.28125 0  0.75 0.28125 0  0.78125 0.28125 0  0.8125 0.28125 0  0.84375 0.28125 0  0.875 0.28125 0  0.90625 0.28125 0  0.9375 0.28125 0  0.96875 0.28125 0  1 0.28125 0  1.03125 0.28125 0  1.0625 0.28125 0  1.09375 0.28125 0  1.125 0.28125 0  1.15625 0.28125 0  1.1875 0.28125 0  1.21875 0.28125 0  1.25 0.28125 0  1.28125 0.28125 0  1.3125 0.28125 0  1.34375 0.28125 0  1.375 0.28125 0  1.40625 0.28125 0  1.4375 0.28125 0  1.46875 0.28125 0  1.5 0.28125 0  0 0.3125 0  0.03125 0.3125 0  0.0625 0.3125 0  0.09375 0.3125 0  0.125 0.3125 0  0.15625 0.3125 0  0.1875 0.3125 0  0.21875 0.3125 0  0.25 0.3125 0  0.28125 0.3125 0  0.3125 0.3125 0  0.34375 0.3125 0  0.375 0.3125 0  0.40625 0.3125 0  0.4375 0.3125 0  0.46875 0.3125 0  0.5 0.3125 0  0.53125 0.3125 0  0.5625 0.3125 0  0.59375 0.3125 0  0.625 0.3125 0  0.65625 0.3125 0  0.6875 0.3125 0  0.71875 0.3125 0  0.75 0.3125 0  0.78125 0.3125 0  0.8125 0.3125 0  0.84375 0.3125 0  0.875 0.3125 0  0.90625 0.3125 0  0.9375 0.3125 0  0.96875 0.3125 0  1 0.3125 0  1.03125 0.3125 0  1.0625 0.3125 0  1.09375 0.3125 0  1.125 0.3125 0  1.15625 0.3125 0  1.1875 0.3125 0  1.21875 0.3125 0  1.25 0.3125 0  1.28125 0.3125 0  1.3125 0.3125 0  1.34375 0.3125 0  1.375 0.3125 0  1.40625 0.3125 0  1.4375 0.3125 0  1.46875 0.3125 0  1.5 0.3125 0  0 0.34375 0  0.03125 0.34375 0  0.0625 0.34375 0  0.09375 0.34375 0  0.125 0.34375 0  0.15625 0.34375 0  0.1875 0.34375 0  0.21875 0.34375 0  0.25 0.34375 0  0.28125 0.34375 0  0.3125 0.34375 0  0.34375 0.34375 0  0.375 0.34375 0  0.40625 0.34375 0  0.4375 0.34375 0  0.46875 0.34375 0  0.5 0.34375 0  0.53125 0.34375 0  0.5625 0.34375 0  0.59375 0.34375 0  0.625 0.34375 0  0.65625 0.34375 0  0.6875 0.34375 0  0.71875 0.34375 0  0.75 0.34375 0  0.78125 0.34375 0  0.8125 0.34375 0  0.84375 0.34375 0  0.875 0.34375 0  0.90625 0.34375 0  0.9375 0.34375 0  0.96875 0.34375 0  1 0.34375 0  1.03125 0.34375 0  1.0625 0.34375 0  1.09375 0.34375 0  1.125 0.34375 0  1.15625 0.34375 0  1.1875 0.34375 0  1.21875 0.34375 0  1.25 0.34375 0  1.28125 0.34375 0  1.3125 0.34375 0  1.34375 0.34375 0  1.375 0.34375 0  1
[...]
<PointData  Vectors="f_17"> 
<DataArray  type="Float64"  Name="f_17"  NumberOfComponents="3" format="ascii">0.0000000000000000e+00 0.0000000000000000e+00 0.0000000000000000e+00  0.0000000000000000e+00 0.0000000000000000e+00 0.0000000000000000e+00  0.0000000000000000e+00 0.0000000000000000e+00 0.0000000000000000e+00  0.0000000000000000e+00 0.0000000000000000e+00 0.0000000000000000e+00  0.0000000000000000e+00 0.0000000000000000e+00 0.0000000000000000e+00  0.0000000000000000e+00 0.0000000000000000e+00 0.0000000000000000e+00  0.0000000000000000e+00 0.0000000000000000e+00 0.0000000000000000e+00  0.0000000000000000e+00 0.0000000000000000e+00 0.0000000000000000e+00  0.0000000000000000e+00 0.0000000000000000e+00 0.0000000000000000e+00  0.0000000000000000e+00 0.0000000000000000e+00 0.0000000000000000e+00  0.0000000000000000e+00 0.0000000000000000e+00 0.0000000000000000e+00  0.0000000000000000e+00 0.0000000000000000e+00 0.0000000000000000e+00  0.0000000000000000e+00 0.0000000000000000e+00 0.0000000000000000e+00  0.0000000000000000e+00 0.0000000000000000e+00 0.0000000000000000e+00  0.0000000000000000e+00 0.0000000000000000e+00 0.0000000000000000e+00  0.0000000000000000e+00 0.0000000000000000e+00 0.0000000000000000e+00  0.0000000000000000e+00 0.0000000000000000e+00 0.0000000000000000e+00  0.0000000000000000e+00 0.0000000000000000e+00 0.0000000000000000e+00  0.0000000000000000e+00 0.0000000000000000e+00 0.0000000000000000e+00  0.0000000000000000e+00 0.0000000000000000e+00 0.0000000000000000e+00  0.0000000000000000e+00 0.0000000000000000e+00 0.0000000000000000e+00  0.0000000000000000e+00 0.0000000000000000e+00 0.0000000000000000e+00  0.0000000000000000e+00 0.0000000000000000e+00 0.0000000000000000e+00  0.0000000000000000e+00 0.0000000000000000e+00 0.0000000000000000e+00  0.0000000000000000e+00 0.0000000000000000e+00 0.0000000000000000e+00  0.0000000000000000e+00 0.0000000000000000e+00 0.0000000000000000e+00  0.0000000000000000e+00 0.0000000000000000e+00 0.0000000000000000e+00  0.0000000000000000e+00 0.0000000000000000e+00 0.0000000000000000e+00  0.0000000000000000e+00 0.0000000000000000e+00 0.0000000000000000e+00  0.0000000000000000e+00 0.0000000000000000e+00 0.0000000000000000e+00  0.0000000000000000e+00 0.0000000000000000e+00 0.0000000000000000e+00  0.0000000000000000e+00 0.0000000000000000e+00 0.0000000000000000e+00  0.0000000000000000e+00 0.0000000000000000e+00 0.0000000000000000e+00  0.0000000000000000e+00 0.0000000000000000e+00 0.0000000000000000e+00  0.0000000000000000e+00 0.0000000000000000e+00 0.0000000000000000e+00  0.0000000000000000e+00 0.0000000000000000e+00 0.0000000000000000e+00  0.0000000000000000e+00 0.0000000000000000e+00 0.0000000000000000e+00  0.0000000000000000e+00 0.0000000000000000e+00 0.0000000000000000e+00  0.0000000000000000e+00 0.0000000000000000e+00 0.0000000000000000e+00  0.0000000000000000e+00 0.0000000000000000e+00 0.0000000000000000e+00  0.0000000000000000e+00 0.0000000000000000e+00 0.0000000000000000e+00  0.0000000000000000e+00 0.0000000000000000e+00 0.0000000000000000e+00  0.0000000000000000e+00 0.0000000000000000e+00 0.0000000000000000e+00  0.0000000000000000e+00 0.0000000000000000e+00 0.0000000000000000e+00  0.0000000000000000e+00 0.0000000000000000e+00 0.0000000000000000e+00  0.0000000000000000e+00 0.0000000000000000e+00 0.0000000000000000e+00  0.0000000000000000e+00 0.0000000000000000e+00 0.0000000000000000e+00  0.0000000000000000e+00 0.0000000000000000e+00 0.0000000000000000e+00  0.0000000000000000e+00 0.0000000000000000e+00 0.0000000000000000e+00  0.0000000000000000e+00 0.0000000000000000e+00 0.0000000000000000e+00  1.8397940740001915e-08 1.9829801998017196e-09 0.0000000000000000e+00  -1.0668188513289635e-07 9.7660151940456202e-08 0.0000000000000000e+00  -3.5121607224359009e-08 -2.6345715878241762e-08 0.0000000000000000e+00  -2.2719540368375173e-07 -6.2016402798078394e-08 0.0000000000000000e+00  -2.1045171877324308e-07 -8.8461336964271150e-08 0.0000000000000000e+00  -1.9590505560701578e-07 -9.2008589191821071e-08 0.0000000000000000e+00  -1.8476973432849864e-07 -8.3120566937589988e-08 0.0000000000000000e+00  -1.6309436402680927e-07 -7.1832040686977314e-08 0.0000000000000000e+00  -1.4308224070507616e-07 -5.9764896939099962e-08 0.0000000000000000e+00  -1.2500086843956491e-07 -4.8109790508573945e-08 0.0000000000000000e+00  -1.1009766536810756e-07 -3.7248478766707434e-08 0.0000000000000000e+00  -9.9506379389861449e-08 -2.7194087523063379e-08 0.0000000000000000e+00  -9.3554764978343751e-08 -1.7902093316228270e-08 0.0000000000000000e+00  -9.2480278276342468e-08 -9.2756781343998722e-09 0.0000000000000000e+00  -9.6395530133455005e-08 -1.1995333643329569e-09 0.0000000000000000e+00  -1.0535197046760287e-07 6.4366412195641911e-09 0.0000000000000000e+00  -1.1938151183986189e-07 1.3713936104538474e-08 0.0000000000000000e+00  -1.3848316423271735e-07 2.0654763477725069e-08 0.0000000000000000e+00  -1.6258491265227831e-07 2.7194450168410693e-08 0.0000000000000000e+00  -1.9147767793262156e-07 3.3163227214014766e-08 0.0000000000000000e+00  -2.2473467204204379e-07 3.8288747759488547e-08 0.0000000000000000e+00  -2.6163902066180537e-07 4.2225666443502901e-08 0.0000000000000000e+00  -3.0114152660709470e-07 4.4610516790549521e-08 0.0000000000000000e+00  -3.4187400148463237e-07 4.5130270339477644e-08 0.0000000000000000e+00  -3.8221523942038397e-07 4.3586309616963923e-08 0.0000000000000000e+00  -4.2042077419415631e-07 3.9934703826203323e-08 0.0000000000000000e+00  -4.5474771614415844e-07 3.4293742573174847e-08 0.0000000000000000e+00  -4.8363250683932461e-07 2.6913635586565368e-08 0.0000000000000000e+00  -5.0570907256079972e-07 1.8132863123435915e-08 0.0000000000000000e+00  -5.2003516010951761e-07 8.3028846855044452e-09 0.0000000000000000e+00  -5.2573420008180366e-07 -2.2226215752401570e-09 0.0000000000000000e+00  -5.2270678583690978e-07 -1.3215708830228409e-08 0.0000000000000000e+00  -5.1002304407070103e-07 -2.4373720474109593e-08 0.0000000000000000e+00  -4.8907273771837341e-07 -3.5804207932639706e-08 0.0000000000000000e+00  -4.5685559562726886e-07 -4.6909236474629462e-08 0.0000000000000000e+00  -4.1970330897176613e-07 -5.8808197865558874e-08 0.0000000000000000e+00  -3.6484877878064118e-07 -6.8878011640991167e-08 0.0000000000000000e+00  -3.1894064052749126e-07 -8.2592871150435843e-08 0.0000000000000000e+00  -2.2797262370704480e-07 -8.7540742621868885e-08 0.0000000000000000e+00  -2.0301557753476175e-07 -1.0915380281115828e-07 0.0000000000000000e+00  -2.0418123396293405e-08 -9.0899517249800930e-08 0.0000000000000000e+00  -1.3431511428242698e-07 -1.4697861798865900e-07 0.0000000000000000e+00  3.5567715485212205e-07 -3.1349926180057316e-08 0.0000000000000000e+00  -3.7527404484484035e-07 -2.3910066649289964e-07 0.0000000000000000e+00  1.1485667741978604e-06 2.3447680217273012e-07 0.0000000000000000e+00  -2.4280787300827321e-06 -7.5023164265622717e-07 0.0000000000000000e+00  2.6884364393860409e-06 1.3688126246853921e-06 0.0000000000000000e+00  0.0000000000000000e+00 0.0000000000000000e+00 0.0000000000000000e+00  0.0000000000000000e+00 0.0000000000000000e+00 0.0000000000000000e+00  -1.2531561189553081e-06 6.5575646713299305e-07 0.0000000000000000e+00  7.9979957652175133e-07 -5.2732992886286053e-08 0.0000000000000000e+00  -7.6956510536922368e-08 8.1079450840525708e-08 0.0000000000000000e+00  -2.4176289823176044e-07 -3.7163103804656779e-08 0.0000000000000000e+00  -2.5027225228096347e-07 -8.7966065796185420e-08 0.0000000000000000e+00  -3.0195085233201806e-07 -1.0796767399327822e-07 0.0000000000000000e+00  -2.9505257078741394e-07 -1.1051899439736739e-07 0.0000000000000000e+00  -2.7889814371729506e-07 -1.0385143002924379e-07 0.0000000000000000e+00  -2.5937630880794151e-07 -9.2167656518913352e-08 0.0000000000000000e+00  -2.3784027605661546e-07 -7.8143879868186086e-08 0.0000000000000000e+00  -2.1884751329087337e-07 -6.3083456795119102e-08 0.0000000000000000e+00  -2.0350057840749910e-07 -4.7727902458747940e-08 0.0000000000000000e+00  -1.9263040459731383e-07 -3.2488059658371977e-08 0.0000000000000000e+00  -1.8673243118398753e-07 -1.7553621333522179e-08 0.0000000000000000e+00  -1.8599750992071268e-07 -2.9826250657205582e-09 0.0000000000000000e+00  -1.9052221692606277e-07 1.1233818629068602e-08 0.0000000000000000e+00  -2.0033452192444663e-07 2.5107826116886103e-08 0.0000000000000000e+00  -2.1541032615126713e-07 3.8583716376568646e-08 0.0000000000000000e+00  -2.3564760501349132e-07 5.1468457228631760e-08 0.0000000000000000e+00  -2.6079896208384663e-07 6.3380905956321575e-08 0.0000000000000000e+00  -2.9038121531313336e-07 7.3741831298997160e-08 0.0000000000000000e+00  -3.2358845429926702e-07 8.1821724952902994e-08 0.0000000000000000e+00  -3.5924012757672352e-07 8.6846415220810589e-08 0.0000000000000000e+00  -3.9579992763027545e-07 8.8138075633072821e-08 0.0000000000000000e+00  -4.3146473139356140e-07 8.5252207355232632e-08 0.0000000000000000e+00  -4.6433325414370526e-07 7.8068094052295276e-08 0.0000000000000000e+00  -4.9256736538099356e-07 6.6808674914542805e-08 0.0000000000000000e+00  -5.1460206007514831e-07 5.1983120436824640e-08 0.0000000000000000e+00  -5.2916091429909023e-07 3.4289567096762201e-08 0.0000000000000000e+00  -5.3548666844671715e-07 1.4476504350942919e-08 0.0000000000000000e+00  -5.3292437887723119e-07 -6.7206510347298826e-09 0.0000000000000000e+00  -5.2166521908567617e-07 -2.8742832136075440e-08 0.0000000000000000e+00  -5.0100950032644321e-07 -5.1018384840247986e-08 0.0000000000000000e+00  -4.7270399266558586e-07 -7.3432003631598670e-08 0.0000000000000000e+00  -4.3389916380599168e-07 -9.5214879470249777e-08 0.0000000000000000e+00  -3.9147343632303430e-07 -1.1723639576760837e-07 0.0000000000000000e+00  -3.3268739000466387e-07 -1.3677600225642802e-07 0.0000000000000000e+00  -2.8522070348902470e-07 -1.5858025536471339e-07 0.0000000000000000e+00  -1.9509450515572348e-07 -1.7066490491468560e-07 0.0000000000000000e+00  -1.7493535375663908e-07 -1.9548046827785516e-07 0.0000000000000000e+00  -2.5320684417800141e-09 -1.8070437128466067e-07 0.0000000000000000e+00  -1.3182813744090156e-07 -2.2800476357110161e-07 0.0000000000000000e+00  3.2638841607706700e-07 -1.1657634631060373e-07 0.0000000000000000e+00  -4.3185928571666786e-07 -2.9033183889971393e-07 0.0000000000000000e+00  9.7696560899541967e-07 1.4732232465536060e-07 0.0000000000000000e+00  -2.4512135270785564e-06 -6.1794746391713388e-07 0.0000000000000000e+00  2.6459664080425048e-06 1.4058863298709214e-06 0.0000000000000000e+00  0.0000000000000000e+00 0.0000000000000000e+00 0.0000000000000000e+00  0.0000000000000000e+00 0.0000000000000000e+00 0.0000000000000000e+00  -2.3054832158659506e-06 1.1239174644061876e-06 0.0000000000000000e+00  1.7495510946628829e-06 -1.6071221480459352e-07 0.0000000000000000e+00  -3.4073067778368714e-07 2.3178514746625618e-07 0.0000000000000000e+00  3.9629968043000105e-08 -2.3302826205698299e-08 0.0000000000000000e+00  -1.0238779303836209e-07 -5.1534761084392762e-08 0.0000000000000000e+00  -1.5486679777181720e-07 -9.9953122283549931e-08 0.0000000000000000e+00  -1.6646961283155588e-07 -1.1448390208371294e-07 0.0000000000000000e+00  -1.8837927748149556e-07 -1.1489215467641141e-07 0.0000000000000000e+00  -1.9536710808796826e-07 -1.0600867417174134e-07 0.0000000000000000e+00  -1.9804948661796143e-07 -9.1730883297861440e-08 0.0000000000000000e+00  -1.9874930629852853e-07 -7.4579113668333753e-08 0.0000000000000000e+00  -1.9861429344087118e-07 -5.6031932680179070e-08 0.0000000000000000e+00  -1.9936098377450729e-07 -3.6984366506689716e-08 0.0000000000000000e+00  -2.0179818179237983e-07 -1.7927216841531513e-08 0.0000000000000000e+00  -2.0652755746962875e-07 9.0829799136192713e-10 0.0000000000000000e+00  -2.1397206568089763e-07 1.9446782312323278e-08 0.0000000000000000e+00  -2.2442234666565856e-07 3.7667125282061567e-08 0.0000000000000000e+00  -2.3809481374193940e-07 5.5488207276164481e-08 0.0000000000000000e+00  -2.5511486226350811e-07 7.2651958532859455e-08 0.0000000000000000e+00  -2.7545742271754270e-07 8.8628336908336936e-08 0.0000000000000000e+00  -2.9884835769268023e-07 1.0258150556787352e-07 0.0000000000000000e+00  -3.2466054613642426e-07 1.1343117262492997e-07 0.0000000000000000e+00  -3.5185041893655903e-07 1.2001511450882309e-07 0.0000000000000000e+00  -3.7898561162843677e-07 1.2131728843125784e-07 0.0000000000000000e+00  -4.0436866420277967e-07 1.1669214525647792e-07 0.0000000000000000e+00  -4.2625935464333046e-07 1.0600958665942954e-07 0.0000000000000000e+00  -4.4308459810286619e-07 8.9677410160680954e-08 0.0000000000000000e+00  -4.5367690792065740e-07 6.8537095770887571e-08 0.0000000000000000e+00  -4.5727506111815650e-07 4.3692474947637940e-08 0.0000000000000000e+00  -4.5372782398631303e-07 1.6294955433643570e-08 0.0000000000000000e+00  -4.4300489208294665e-07 -1.2572768397934141e-08 0.0000000000000000e+00  -4.2593805717960720e-07 -4.2088652007336638e-08 0.0000000000000000e+00  -4.0237786026112723e-07 -7.1492073948801814e-08 0.0000000000000000e+00  -3.7467472628709647e-07 -1.0054102469866876e-07 0.0000000000000000e+00  -3.4037422440862769e-07 -1.2834988177699243e-07 0.0000000000000000e+00  -3.0705637190444046e-07 -1.5566055802877950e-07 0.0000000000000000e+00  -2.6215838536415453e-07 -1.7958750824784864e-07 0.0000000000000000e+00  -2.3444162381218261e-07 -2.0451779965348310e-07 0.0000000000000000e+00  -1.6973703386620461e-07 -2.1844297623743706e-07 0.0000000000000000e+00  -1.8197730970809739e-07 -2.4249666118973884e-07 0.0000000000000000e+00  -4.9306191489811787e-08 -2.2683987701159150e-07 0.0000000000000000e+00  -2.2203708560040216e-07 -2.6695781999821624e-07 0.0000000000000000e+00  1.7708186597030653e-07 -1.6140555574320382e-07 0.0000000000000000e+00  -6.1427009470112965e-07 -3.1674797995899599e-07 0.0000000000000000e+00  7.0906260722172358e-07 6.8278379161779199e-08 0.0000000000000000e+00  -2.6429861837885901e-06 -5.8478981251196121e-07 0.0000000000000000e+00  2.2724476931267557e-06 1.1811987381169360e-06 0.0000000000000000e+00  0.0000000000000000e+00 0.0000000000000000e+00 0.0000000000000000e+00  0.0000000000000000e+00 0.0000000000000000e+00 0.0000000000000000e+00  -2.5624826626467436e-06 1.1674609780080728e-06 0.0000000000000000e+00  2.3574378441004261e-06 -1.9603876406967965e-07 0.0000000000000000e+00  -6.4665951122126509e-07 3.0584538094377192e-07 0.0000000000000000e+00  3.0088578007812607e-07 -1.8025515878767059e-08 0.0000000000000000e+00  -1.2624694366914982e-07 1.2647936851122152e-08 0.0000000000000000e+00  -6.6575382788650839e-08 -6.6636802779680725e-08 0.0000000000000000e+00  -1.1066729419096727e-07 -8.4031539174057849e-08 0.0000000000000000e+00  -1.4169118693500016e-07 -9.6385093015120642e-08 0.0000000000000000e+00  -1.5779446393451361e-07 -9.4409145643387835e-08 0.0000000000000000e+00  -1.7340002521028153e-07 -8.4936667711296299e-08 0.0000000000000000e+00  -1.8391793189718310e-07 -7.0380939132719558e-08 0.0000000000000000e+00  -1.9233566828640796e-07 -5.2764244721932607e-08 0.0000000000000000e+00  -1.9984382997093723e-07 -3.3469605734686869e-08 0.0000000000000000e+00  -2.0717057161070618e-07 -1.3340718014291922e-08 0.0000000000000000e+00  -2.1505201417300442e-07 7.1248112555770001e-09 0.0000000000000000e+00  -2.2395422036569342e-07 2.7689773639638706e-08 0.0000000000000000e+00  -2.3426266105025817e-07 4.8245031069877637e-08 0.0000000000000000e+00  -2.4631270432068228e-07 6.8657858434029945e-08 0.0000000000000000e+00  -2.6038269170343754e-07 8.8598293846773147e-08 0.0000000000000000e+00  -2.7663148410100258e-07 1.0737997110871182e-07 0.0000000000000000e+00  -2.9496805334124880e-07 1.2388208494604132e-07 0.0000000000000000e+00  -3.1490290265442865e-07 1.3661722050527738e-07 0.0000000000000000e+00  -3.3544847470533680e-07 1.4396719737374525e-07 0.0000000000000000e+00  -3.5514959663587972e-07 1.4453324181341960e-07 0.0000000000000000e+00  -3.7226072864469241e-07 1.3748176493380362e-07 0.0000000000000000e+00  -3.8505984598569632e-07 1.2275604610396588e-07 0.0000000000000000e+00  -3.9214067832587437e-07 1.0108304649651768e-07 0.0000000000000000e+00  -3.9269781276001272e-07 7.3783822378700818e-08 0.0000000000000000e+00  -3.8649434440975764e-07 4.2487380609712961e-08 0.0000000000000000e+00  -3.7402075081564744e-07 8.8158362504288047e-09 0.0000000000000000e+00  -3.5587487167408116e-07 -2.5790145112955127e-08 0.0000000000000000e+00  -3.3352219588605116e-07 -6.0273040086959830e-08 0.0000000000000000e+00  -3.0723551942422310e-07 -9.3736738583237377e-08 0.0000000000000000e+00  -2.7990131259612740e-07 -1.2585075037772907e-07 0.0000000000000000e+00  -2.4907175560456035e-07 -1.5566892463926109e-07 0.0000000000000000e+00  -2.2305392911016644e-07 -1.8378881543718141e-07 0.0000000000000000e+00  -1.8838945564479937e-07 -2.0727687616965232e-07 0.0000000000000000e+00  -1.7569471702321425e-07 -2.3007132069169697e-07 0.0000000000000000e+00  -1.2719068808978599e-07 -2.4063373123270842e-07 0.0000000000000000e+00  -1.6255216012536412e-07 -2.5860461714916654e-07 0.0000000000000000e+00  -4.7842273347697658e-08 -2.3812402993978151e-07 0.0000000000000000e+00  -2.5102962485741848e-07 -2.6808001726058843e-07 0.0000000000000000e+00  1.4075235421412022e-07 -1.6739273200464598e-07 0.0000000000000000e+00  -6.8301764838913416e-07 -3.0603613917257320e-07 0.0000000000000000e+00  6.6398958101416135e-07 3.2398984051686956e-08 0.0000000000000000e+00  -2.6904029297476036e-06 -5.4254765692303263e-07 0.0000000000000000e+00  2.2588723248048173e-06 1.0162377687333276e-06 0.0000000000000000e+00  0.0000000000000000e+00 0.0000000000000000e+00 0.0000000000000000e+00  0.0000000000000000e+00 0.0000000000000000e+00 0.0000000000000000e+00  -2.5139826535428038e-06 1.0599256215051312e-06 0.0000000000000000e+00  2.5997225678080979e-06 -1.8030186426840421e-07 0.0000000000000000e+00  -7.9075407983178242e-07 3.0447079679748385e-07 0.0000000000000000e+00  5.0680096638341769e-07 -9.6152951267962299e-09 0.0000000000000000e+00  -1.7939354900007060e-07 6.2174155834845008e-08 0.0000000000000000e+00  3.9649490763088380e-08 -3.5567442397054799e-08 0.0000000000000000e+00  -7.0603381148067691e-08 -4.6135827556581437e-08 0.0000000000000000e+00  -8.2048996310422932e-08 -6.9548310553866872e-08 0.0000000000000000e+00  -1.0931619549886760e-07 -7.2051594860627930e-08 0.0000000000000000e+00  -1.3294416468752755e-07 -6.7998647159108670e-08 0.0000000000000000e+00  -1.5081165885646894e-07 -5.6860836117650338e-08 0.0000000000000000e+00  -1.6690257296549549e-07 -4.1532589005580945e-08 0.0000000000000000e+00  -1.8067627777988959e-07 -2.3495772479945158e-08 0.0000000000000000e+00  -1.9312822154211762e-07 -3.8697935705625003e-09 0.0000000000000000e+00  -2.0484077095071482e-07 1.6633740779435422e-08 0.0000000000000000e+00  -2.1623738656547200e-07 3.7651443541565235e-08 0.0000000000000000e+00  -2.2774462852842138e-07 5.9021589529125205e-08 0.0000000000000000e+00  -2.3977022308303480e-07 8.0615601352201667e-08 0.0000000000000000e+00  -2.5273705868071527e-07 1.0209577005644976e-07 0.0000000000000000e+00  -2.6700151540418452e-07 1.2266434871856906e-07 0.0000000000000000e+00  -2.8267237456534845e-07 1.4090532537810893e-07 0.0000000000000000e+00  -2.9938214367421611e-07 1.5484414012900408e-07 0.0000000000000000e+00  -3.1611736411316743e-07 1.6228655489273596e-07 0.0000000000000000e+00  -3.3124626744696903e-07 1.6135773076386329e-07 0.0000000000000000e+00  -3.4278634460593761e-07 1.5103553644143372e-07 0.0000000000000000e+00  -3.4887370916125938e-07 1.3145185868807657e-07 0.0000000000000000e+00  -3.4819340293836952e-07 1.0384987096785682e-07 0.0000000000000000e+00  -3.4032361827237315e-07 7.0239532933060653e-08 0.0000000000000000e+00  -3.2564134256037206e-07 3.2929635963290698e-08 0.0000000000000000e+00  -3.0537659601474911e-07 -5.9247796339987488e-09 0.0000000000000000e+00  -2.8082323075871490e-07 -4.4554513307889010e-08 0.0000000000000000e+00  -2.5407122719082377e-07 -8.1764255968534492e-08 0.0000000000000000e+00  -2.2576783573499423e-07 -1.1665203156976766e-07 0.0000000000000000e+00  -1.9917142164187465e-07 -1.48941007894