<?xml version="1.0"?>
<VTKFile type="UnstructuredGrid"  version="0.1"  >
<UnstructuredGrid>
<Piece  NumberOfPoints="1617" NumberOfCells="3072">
<Points>
<DataArray  type="Float64"  NumberOfComponents="3"  format="ascii">0 0 0  0.03125 0 0  0.0625 0 0  0.09375 0 0  0.125 0 0  0.15625 0 0  0.1875 0 0  0.21875 0 0  0.25 0 0  0.28125 0 0  0.3125 0 0  0.34375 0 0  0.375 0 0  0.40625 0 0  0.4375 0 0  0.46875 0 0  0.5 0 0  0.53125 0 0  0.5625 0 0  0.59375 0 0  0.625 0 0  0.65625 0 0  0.6875 0 0  0.71875 0 0  0.75 0 0  0.78125 0 0  0.8125 0 0  0.84375 0 0  0.875 0 0  0.90625 0 0  0.9375 0 0  0.96875 0 0  1 0 0  1.03125 0 0  1.0625 0 0  1.09375 0 0  1.125 0 0  1.15625 0 0  1.1875 0 0  1.21875 0 0  1.25 0 0  1.28125 0 0  1.3125 0 0  1.34375 0 0  1.375 0 0  1.40625 0 0  1.4375 0 0  1.46875 0 0  1.5 0 0  0 0.03125 0  0.03125 0.03125 0  0.0625 0.03125 0  0.09375 0.03125 0  0.125 0.03125 0  0.15625 0.03125 0  0.1875 0.03125 0  0.21875 0.03125 0  0.25 0.03125 0  0.28125 0.03125 0  0.3125 0.03125 0  0.34375 0.03125 0  0.375 0.03125 0  0.40625 0.03125 0  0.4375 0.03125 0  0.46875 0.03125 0  0.5 0.03125 0  0.53125 0.03125 0  0.5625 0.03125 0  0.59375 0.03125 0  0.625 0.03125 0  0.65625 0.03125 0  0.6875 0.03125 0  0.71875 0.03125 0  0.75 0.03125 0  0.78125 0.03125 0  0.8125 0.03125 0  0.84375 0.03125 0  0.875 0.03125 0  0.90625 0.03125 0  0.9375 0.03125 0  0.96875 0.03125 0  1 0.03125 0  1.03125 0.03125 0  1.0625 0.03125 0  1.09375 0.03125 0  1.125 0.03125 0  1.15625 0.03125 0  1.1875 0.03125 0  1.21875 0.03125 0  1.25 0.03125 0  1.28125 0.03125 0  1.3125 0.03125 0  1.34375 0.03125 0  1.375 0.03125 0  1.40625 0.03125 0  1.4375 0.03125 0  1.46875 0.03125 0  1.5 0.03125 0  0 0.0625 0  0.03125 0.0625 0  0.0625 0.0625 0  0.09375 0.0625 0  0.125 0.0625 0  0.15625 0.0625 0  0.1875 0.0625 0  0.21875 0.0625 0  0.25 0.0625 0  0.28125 0.0625 0  0.3125 0.0625 0  0.34375 0.0625 0  0.375 0.0625 0  0.40625 0.0625 0  0.4375 0.0625 0  0.46875 0.0625 0  0.5 0.0625 0  0.53125 0.0625 0  0.5625 0.0625 0  0.59375 0.0625 0  0.625 0.0625 0  0.65625 0.0625 0  0.6875 0.0625 0  0.71875 0.0625 0  0.75 0.0625 0  0.78125 0.0625 0  0.8125 0.0625 0  0.84375 0.0625 0  0.875 0.0625 0  0.90625 0.0625 0  0.9375 0.0625 0  0.96875 0.0625 0  1 0.0625 0  1.03125 0.0625 0  1.0625 0.0625 0  1.09375 0.0625 0  1.125 0.0625 0  1.15625 0.0625 0  1.1875 0.0625 0  1.21875 0.0625 0  1.25 0.0625 0  1.28125 0.0625 0  1.3125 0.0625 0  1.34375 0.0625 0  1.375 0.0625 0  1.40625 0.0625 0  1.4375 0.0625 0  1.46875 0.0625 0  1.5 0.0625 0  0 0.09375 0  0.03125 0.09375 0  0.0625 0.09375 0  0.09375 0.09375 0  0.125 0.09375 0  0.15625 0.09375 0  0.1875 0.09375 0  0.21875 0.09375 0  0.25 0.09375 0  0.28125 0.09375 0  0.3125 0.09375 0  0.34375 0.09375 0  0.375 0.09375 0  0.40625 0.09375 0  0.4375 0.09375 0  0.46875 0.09375 0  0.5 0.09375 0  0.53125 0.09375 0  0.5625 0.09375 0  0.59375 0.09375 0  0.625 0.09375 0  0.65625 0.09375 0  0.6875 0.09375 0  0.71875 0.09375 0  0.75 0.09375 0  0.78125 0.09375 0  0.8125 0.09375 0  0.84375 0.09375 0  0.875 0.09375 0  0.90625 0.09375 0  0.9375 0.09375 0  0.96875 0.09375 0  1 0.09375 0  1.03125 0.09375 0  1.0625 0.09375 0  1.09375 0.09375 0  1.125 0.09375 0  1.15625 0.09375 0  1.1875 0.09375 0  1.21875 0.09375 0  1.25 0.09375 0  1.28125 0.09375 0  1.3125 0.09375 0  1.34375 0.09375 0  1.375 0.09375 0  1.40625 0.09375 0  1.4375 0.09375 0  1.46875 0.09375 0  1.5 0.09375 0  0 0.125 0  0.03125 0.125 0  0.0625 0.125 0  0.09375 0.125 0  0.125 0.125 0  0.15625 0.125 0  0.1875 0.125 0  0.21875 0.125 0  0.25 0.125 0  0.28125 0.125 0  0.3125 0.125 0  0.34375 0.125 0  0.375 0.125 0  0.40625 0.125 0  0.4375 0.125 0  0.46875 0.125 0  0.5 0.125 0  0.53125 0.125 0  0.5625 0.125 0  0.59375 0.125 0  0.625 0.125 0  0.65625 0.125 0  0.6875 0.125 0  0.71875 0.125 0  0.75 0.125 0  0.78125 0.125 0  0.8125 0.125 0  0.84375 0.125 0  0.875 0.125 0  0.90625 0.125 0  0.9375 0.125 0  0.96875 0.125 0  1 0.125 0  1.03125 0.125 0  1.0625 0.125 0  1.09375 0.125 0  1.125 0.125 0  1.15625 0.125 0  1.1875 0.125 0  1.21875 0.125 0  1.25 0.125 0  1.28125 0.125 0  1.3125 0.125 0  1.34375 0.125 0  1.375 0.125 0  1.40625 0.125 0  1.4375 0.125 0  1.46875 0.125 0  1.5 0.125 0  0 0.15625 0  0.03125 0.15625 0  0.0625 0.15625 0  0.09375 0.15625 0  0.125 0.15625 0  0.15625 0.15625 0  0.1875 0.15625 0  0.21875 0.15625 0  0.25 0.15625 0  0.28125 0.15625 0  0.3125 0.15625 0  0.34375 0.15625 0  0.375 0.15625 0  0.40625 0.15625 0  0.4375 0.15625 0  0.46875 0.15625 0  0.5 0.15625 0  0.53125 0.15625 0  0.5625 0.15625 0  0.59375 0.15625 0  0.625 0.15625 0  0.65625 0.15625 0  0.6875 0.15625 0  0.71875 0.15625 0  0.75 0.15625 0  0.78125 0.15625 0  0.8125 0.15625 0  0.84375 0.15625 0  0.875 0.15625 0  0.90625 0.15625 0  0.9375 0.15625 0  0.96875 0.15625 0  1 0.15625 0  1.03125 0.15625 0  1.0625 0.15625 0  1.09375 0.15625 0  1.125 0.15625 0  1.15625 0.15625 0  1.1875 0.15625 0  1.21875 0.15625 0  1.25 0.15625 0  1.28125 0.15625 0  1.3125 0.15625 0  1.34375 0.15625 0  1.375 0.15625 0  1.40625 0.15625 0  1.4375 0.15625 0  1.46875 0.15625 0  1.5 0.15625 0  0 0.1875 0  0.03125 0.1875 0  0.0625 0.1875 0  0.09375 0.1875 0  0.125 0.1875 0  0.15625 0.1875 0  0.1875 0.1875 0  0.21875 0.1875 0  0.25 0.1875 0  0.28125 0.1875 0  0.3125 0.1875 0  0.34375 0.1875 0  0.375 0.1875 0  0.40625 0.1875 0  0.4375 0.1875 0  0.46875 0.1875 0  0.5 0.1875 0  0.53125 0.1875 0  0.5625 0.1875 0  0.59375 0.1875 0  0.625 0.1875 0  0.65625 0.1875 0  0.6875 0.1875 0  0.71875 0.1875 0  0.75 0.1875 0  0.78125 0.1875 0  0.8125 0.1875 0  0.84375 0.1875 0  0.875 0.1875 0  0.90625 0.1875 0  0.9375 0.1875 0  0.96875 0.1875 0  1 0.1875 0  1.03125 0.1875 0  1.0625 0.1875 0  1.09375 0.1875 0  1.125 0.1875 0  1.15625 0.1875 0  1.1875 0.1875 0  1.21875 0.1875 0  1.25 0.1875 0  1.28125 0.1875 0  1.3125 0.1875 0  1.34375 0.1875 0  1.375 0.1875 0  1.40625 0.1875 0  1.4375 0.1875 0  1.46875 0.1875 0  1.5 0.1875 0  0 0.21875 0  0.03125 0.21875 0  0.0625 0.21875 0  0.09375 0.21875 0  0.125 0.21875 0  0.15625 0.21875 0  0.1875 0.21875 0  0.21875 0.21875 0  0.25 0.21875 0  0.28125 0.21875 0  0.3125 0.21875 0  0.34375 0.21875 0  0.375 0.21875 0  0.40625 0.21875 0  0.4375 0.21875 0  0.46875 0.21875 0  0.5 0.21875 0  0.53125 0.21875 0  0.5625 0.21875 0  0.59375 0.21875 0  0.625 0.21875 0  0.65625 0.21875 0  0.6875 0.21875 0  0.71875 0.21875 0  0.75 0.21875 0  0.78125 0.21875 0  0.8125 0.21875 0  0.84375 0.21875 0  0.875 0.21875 0  0.90625 0.21875 0  0.9375 0.21875 0  0.96875 0.21875 0  1 0.21875 0  1.03125 0.21875 0  1.0625 0.21875 0  1.09375 0.21875 0  1.125 0.21875 0  1.15625 0.21875 0  1.1875 0.21875 0  1.21875 0.21875 0  1.25 0.21875 0  1.28125 0.21875 0  1.3125 0.21875 0  1.34375 0.21875 0  1.375 0.21875 0  1.40625 0.21875 0  1.4375 0.21875 0  1.46875 0.21875 0  1.5 0.21875 0  0 0.25 0  0.03125 0.25 0  0.0625 0.25 0  0.09375 0.25 0  0.125 0.25 0  0.15625 0.25 0  0.1875 0.25 0  0.21875 0.25 0  0.25 0.25 0  0.28125 0.25 0  0.3125 0.25 0  0.34375 0.25 0  0.375 0.25 0  0.40625 0.25 0  0.4375 0.25 0  0.46875 0.25 0  0.5 0.25 0  0.53125 0.25 0  0.5625 0.25 0  0.59375 0.25 0  0.625 0.25 0  0.65625 0.25 0  0.6875 0.25 0  0.71875 0.25 0  0.75 0.25 0  0.78125 0.25 0  0.8125 0.25 0  0.84375 0.25 0  0.875 0.25 0  0.90625 0.25 0  0.9375 0.25 0  0.96875 0.25 0  1 0.25 0  1.03125 0.25 0  1.0625 0.25 0  1.09375 0.25 0  1.125 0.25 0  1.15625 0.25 0  1.1875 0.25 0  1.21875 0.25 0  1.25 0.25 0  1.28125 0.25 0  1.3125 0.25 0  1.34375 0.25 0  1.375 0.25 0  1.40625 0.25 0  1.4375 0.25 0  1.46875 0.25 0  1.5 0.25 0  0 0.28125 0  0.03125 0.28125 0  0.0625 0.28125 0  0.09375 0.28125 0  0.125 0.28125 0  0.15625 0.28125 0  0.1875 0.28125 0  0.21875 0.28125 0  0.25 0.28125 0  0.28125 0.28125 0  0.3125 0.28125 0  0.34375 0.28125 0  0.375 0.28125 0  0.40625 0.28125 0  0.4375 0.28125 0  0.46875 0.28125 0  0.5 0.28125 0  0.53125 0.28125 0  0.5625 0.28125 0  0.59375 0.28125 0  0.625 0.28125 0  0.65625 0.28125 0  0.6875 0.28125 0  0.71875 0.28125 0  0.75 0.28125 0  0.78125 0.28125 0  0.8125 0.28125 0  0.84375 0.28125 0  0.875 0.28125 0  0.90625 0.28125 0  0.9375 0.28125 0  0.96875 0.28125 0  1 0.28125 0  1.03125 0.28125 0  1.0625 0.28125 0  1.09375 0.28125 0  1.125 0.28125 0  1.15625 0.28125 0  1.1875 0.28125 0  1.21875 0.28125 0  1.25 0.28125 0  1.28125 0.28125 0  1.3125 0.28125 0  1.34375 0.28125 0  1.375 0.28125 0  1.40625 0.28125 0  1.4375 0.28125 0  1.46875 0.28125 0  1.5 0.28125 0  0 0.3125 0  0.03125 0.3125 0  0.0625 0.3125 0  0.09375 0.3125 0  0.125 0.3125 0  0.15625 0.3125 0  0.1875 0.3125 0  0.21875 0.3125 0  0.25 0.3125 0  0.28125 0.3125 0  0.3125 0.3125 0  0.34375 0.3125 0  0.375 0.3125 0  0.40625 0.3125 0  0.4375 0.3125 0  0.46875 0.3125 0  0.5 0.3125 0  0.53125 0.3125 0  0.5625 0.3125 0  0.59375 0.3125 0  0.625 0.3125 0  0.65625 0.3125 0  0.6875 0.3125 0  0.71875 0.3125 0  0.75 0.3125 0  0.78125 0.3125 0  0.8125 0.3125 0  0.84375 0.3125 0  0.875 0.3125 0  0.90625 0.3125 0  0.9375 0.3125 0  0.96875 0.3125 0  1 0.3125 0  1.03125 0.3125 0  1.0625 0.3125 0  1.09375 0.3125 0  1.125 0.3125 0  1.15625 0.3125 0  1.1875 0.3125 0  1.21875 0.3125 0  1.25 0.3125 0  1.28125 0.3125 0  1.3125 0.3125 0  1.34375 0.3125 0  1.375 0.3125 0  1.40625 0.3125 0  1.4375 0.3125 0  1.46875 0.3125 0  1.5 0.3125 0  0 0.34375 0  0.03125 0.34375 0  0.0625 0.34375 0  0.09375 0.34375 0  0.125 0.34375 0  0.15625 0.34375 0  0.1875 0.34375 0  0.21875 0.34375 0  0.25 0.34375 0  0.28125 0.34375 0  0.3125 0.34375 0  0.34375 0.34375 0  0.375 0.34375 0  0.40625 0.34375 0  0.4375 0.34375 0  0.46875 0.34375 0  0.5 0.34375 0  0.53125 0.34375 0  0.5625 0.34375 0  0.59375 0.34375 0  0.625 0.34375 0  0.65625 0.34375 0  0.6875 0.34375 0  0.71875 0.34375 0  0.75 0.34375 0  0.78125 0.34375 0  0.8125 0.34375 0  0.84375 0.34375 0  0.875 0.34375 0  0.90625 0.34375 0  0.9375 0.34375 0  0.96875 0.34375 0  1 0.34375 0  1.03125 0.34375 0  1.0625 0.34375 0  1.09375 0.34375 0  1.125 0.34375 0  1.15625 0.34375 0  1.1875 0.34375 0  1.21875 0.34375 0  1.25 0.34375 0  1.28125 0.34375 0  1.3125 0.34375 0  1.34375 0.34375 0  1.375 0.34375 0  1
[...]
<PointData  Vectors="f_17"> 
<DataArray  type="Float64"  Name="f_17"  NumberOfComponents="3" format="ascii">0.0000000000000000e+00 0.0000000000000000e+00 0.0000000000000000e+00  0.0000000000000000e+00 0.0000000000000000e+00 0.0000000000000000e+00  0.0000000000000000e+00 0.0000000000000000e+00 0.0000000000000000e+00  0.0000000000000000e+00 0.0000000000000000e+00 0.0000000000000000e+00  0.0000000000000000e+00 0.0000000000000000e+00 0.0000000000000000e+00  0.0000000000000000e+00 0.0000000000000000e+00 0.0000000000000000e+00  0.0000000000000000e+00 0.0000000000000000e+00 0.0000000000000000e+00  0.0000000000000000e+00 0.0000000000000000e+00 0.0000000000000000e+00  0.0000000000000000e+00 0.0000000000000000e+00 0.0000000000000000e+00  0.0000000000000000e+00 0.0000000000000000e+00 0.0000000000000000e+00  0.0000000000000000e+00 0.0000000000000000e+00 0.0000000000000000e+00  0.0000000000000000e+00 0.0000000000000000e+00 0.0000000000000000e+00  0.0000000000000000e+00 0.0000000000000000e+00 0.0000000000000000e+00  0.0000000000000000e+00 0.0000000000000000e+00 0.0000000000000000e+00  0.0000000000000000e+00 0.0000000000000000e+00 0.0000000000000000e+00  0.0000000000000000e+00 0.0000000000000000e+00 0.0000000000000000e+00  0.0000000000000000e+00 0.0000000000000000e+00 0.0000000000000000e+00  0.0000000000000000e+00 0.0000000000000000e+00 0.0000000000000000e+00  0.0000000000000000e+00 0.0000000000000000e+00 0.0000000000000000e+00  0.0000000000000000e+00 0.0000000000000000e+00 0.0000000000000000e+00  0.0000000000000000e+00 0.0000000000000000e+00 0.0000000000000000e+00  0.0000000000000000e+00 0.0000000000000000e+00 0.0000000000000000e+00  0.0000000000000000e+00 0.0000000000000000e+00 0.0000000000000000e+00  0.0000000000000000e+00 0.0000000000000000e+00 0.0000000000000000e+00  0.0000000000000000e+00 0.0000000000000000e+00 0.0000000000000000e+00  0.0000000000000000e+00 0.0000000000000000e+00 0.0000000000000000e+00  0.0000000000000000e+00 0.0000000000000000e+00 0.0000000000000000e+00  0.0000000000000000e+00 0.0000000000000000e+00 0.0000000000000000e+00  0.0000000000000000e+00 0.0000000000000000e+00 0.0000000000000000e+00  0.0000000000000000e+00 0.0000000000000000e+00 0.0000000000000000e+00  0.0000000000000000e+00 0.0000000000000000e+00 0.0000000000000000e+00  0.0000000000000000e+00 0.0000000000000000e+00 0.0000000000000000e+00  0.0000000000000000e+00 0.0000000000000000e+00 0.0000000000000000e+00  0.0000000000000000e+00 0.0000000000000000e+00 0.0000000000000000e+00  0.0000000000000000e+00 0.0000000000000000e+00 0.0000000000000000e+00  0.0000000000000000e+00 0.0000000000000000e+00 0.0000000000000000e+00  0.0000000000000000e+00 0.0000000000000000e+00 0.0000000000000000e+00  0.0000000000000000e+00 0.0000000000000000e+00 0.0000000000000000e+00  0.0000000000000000e+00 0.0000000000000000e+00 0.0000000000000000e+00  0.0000000000000000e+00 0.0000000000000000e+00 0.0000000000000000e+00  0.0000000000000000e+00 0.0000000000000000e+00 0.0000000000000000e+00  0.0000000000000000e+00 0.0000000000000000e+00 0.0000000000000000e+00  0.0000000000000000e+00 0.0000000000000000e+00 0.0000000000000000e+00  0.0000000000000000e+00 0.0000000000000000e+00 0.0000000000000000e+00  0.0000000000000000e+00 0.0000000000000000e+00 0.0000000000000000e+00  0.0000000000000000e+00 0.0000000000000000e+00 0.0000000000000000e+00  0.0000000000000000e+00 0.0000000000000000e+00 0.0000000000000000e+00  0.0000000000000000e+00 0.0000000000000000e+00 0.0000000000000000e+00  0.0000000000000000e+00 0.0000000000000000e+00 0.0000000000000000e+00  0.0000000000000000e+00 0.0000000000000000e+00 0.0000000000000000e+00  1.5441273188237762e-07 2.5855699921414176e-08 0.0000000000000000e+00  -8.4166190685656364e-08 9.4225910588437101e-08 0.0000000000000000e+00  -5.7876531679596320e-08 -4.1204494728244625e-08 0.0000000000000000e+00  -2.5954594495276719e-07 -8.3015318205413769e-08 0.0000000000000000e+00  -2.3682620131326465e-07 -1.0965242660386189e-07 0.0000000000000000e+00  -2.1289453984679712e-07 -1.1173243911561056e-07 0.0000000000000000e+00  -1.9191612107081410e-07 -1.0106133042281428e-07 0.0000000000000000e+00  -1.6058697291262963e-07 -8.8002158182683341e-08 0.0000000000000000e+00  -1.3144999767130320e-07 -7.4344188839680371e-08 0.0000000000000000e+00  -1.0487943692208457e-07 -6.1354293856208258e-08 0.0000000000000000e+00  -8.2092032012036313e-08 -4.9423981556165093e-08 0.0000000000000000e+00  -6.4126147277149530e-08 -3.8544067348389213e-08 0.0000000000000000e+00  -5.1189695437290569e-08 -2.8633120318909398e-08 0.0000000000000000e+00  -4.3400957911634452e-08 -1.9555110407486243e-08 0.0000000000000000e+00  -4.0768207384949827e-08 -1.1159407075896291e-08 0.0000000000000000e+00  -4.3259424292678378e-08 -3.3058908241562695e-09 0.0000000000000000e+00  -5.0845382734420267e-08 4.1124077803878388e-09 0.0000000000000000e+00  -6.3486464198458767e-08 1.1142971231844290e-08 0.0000000000000000e+00  -8.1095548572939890e-08 1.7748614897137072e-08 0.0000000000000000e+00  -1.0347452821807492e-07 2.3791581246390841e-08 0.0000000000000000e+00  -1.3023711141165035e-07 2.9036158762081929e-08 0.0000000000000000e+00  -1.6073917460919649e-07 3.3175951679562880e-08 0.0000000000000000e+00  -1.9403654963020271e-07 3.5884288981040923e-08 0.0000000000000000e+00  -2.2889403741774202e-07 3.6877133661176997e-08 0.0000000000000000e+00  -2.6384216021351155e-07 3.5971718241719409e-08 0.0000000000000000e+00  -2.9729365991471688e-07 3.3123320180678614e-08 0.0000000000000000e+00  -3.2765324081381618e-07 2.8432126595440438e-08 0.0000000000000000e+00  -3.5348108004885296e-07 2.2115200239503540e-08 0.0000000000000000e+00  -3.7350011393510541e-07 1.4467252136580083e-08 0.0000000000000000e+00  -3.8681584104178278e-07 5.7906183764150206e-09 0.0000000000000000e+00  -3.9255642891286088e-07 -3.6107793479791349e-09 0.0000000000000000e+00  -3.9058440802804319e-07 -1.3556168113069270e-08 0.0000000000000000e+00  -3.7989222460763355e-07 -2.3786304525583570e-08 0.0000000000000000e+00  -3.6174967092518464e-07 -3.4448551976544032e-08 0.0000000000000000e+00  -3.3300148969861423e-07 -4.4982599136396929e-08 0.0000000000000000e+00  -2.9976858641394172e-07 -5.6541725265680234e-08 0.0000000000000000e+00  -2.4906921174028344e-07 -6.6532989511396808e-08 0.0000000000000000e+00  -2.0722000730583080e-07 -8.0439319215514499e-08 0.0000000000000000e+00  -1.2009792798712515e-07 -8.5844397789532375e-08 0.0000000000000000e+00  -9.8125098525259264e-08 -1.0807738151333233e-07 0.0000000000000000e+00  8.1588927164292658e-08 -9.0535458931533487e-08 0.0000000000000000e+00  -3.2835166447637083e-08 -1.4691071372819870e-07 0.0000000000000000e+00  4.5407425837342483e-07 -3.1258377677424697e-08 0.0000000000000000e+00  -2.7102818041170606e-07 -2.3635544051677664e-07 0.0000000000000000e+00  1.2325760153537222e-06 2.3973135827994136e-07 0.0000000000000000e+00  -2.4207746242480731e-06 -7.3332435733144069e-07 0.0000000000000000e+00  2.6328564581747967e-06 1.3882569892050710e-06 0.0000000000000000e+00  0.0000000000000000e+00 0.0000000000000000e+00 0.0000000000000000e+00  0.0000000000000000e+00 0.0000000000000000e+00 0.0000000000000000e+00  -1.1328183705147308e-06 7.0256988996734486e-07 0.0000000000000000e+00  8.5770101997012934e-07 -3.4937162537014967e-08 0.0000000000000000e+00  -8.1798154575695093e-08 7.3420443741494241e-08 0.0000000000000000e+00  -2.7006215823295314e-07 -5.9097265172636000e-08 0.0000000000000000e+00  -2.7574696718399379e-07 -1.1485217226299353e-07 0.0000000000000000e+00  -3.2136760112563294e-07 -1.3568574261503187e-07 0.0000000000000000e+00  -3.0644192732281451e-07 -1.3733922824359626e-07 0.0000000000000000e+00  -2.8092027050932978e-07 -1.2898099799919918e-07 0.0000000000000000e+00  -2.5163011657488908e-07 -1.1546524950927999e-07 0.0000000000000000e+00  -2.2040750996591269e-07 -9.9773119792858094e-08 0.0000000000000000e+00  -1.9203988553937994e-07 -8.3342756260164127e-08 0.0000000000000000e+00  -1.6769536258272083e-07 -6.6948510982569199e-08 0.0000000000000000e+00  -1.4817448667209974e-07 -5.0978861838165136e-08 0.0000000000000000e+00  -1.3389623379093154e-07 -3.5576959385049887e-08 0.0000000000000000e+00  -1.2496246998038011e-07 -2.0748056140826003e-08 0.0000000000000000e+00  -1.2138762194648134e-07 -6.4322662073274088e-09 0.0000000000000000e+00  -1.2313434343789176e-07 7.4310449342099955e-09 0.0000000000000000e+00  -1.3013526387515772e-07 2.0835830380205946e-08 0.0000000000000000e+00  -1.4227123987770841e-07 3.3644714244703242e-08 0.0000000000000000e+00  -1.5930876985643292e-07 4.5541768147730709e-08 0.0000000000000000e+00  -1.8081504689279258e-07 5.6022532998586737e-08 0.0000000000000000e+00  -2.0607529296779001e-07 6.4437053958511791e-08 0.0000000000000000e+00  -2.3404125910542631e-07 7.0086159289505013e-08 0.0000000000000000e+00  -2.6334425777570659e-07 7.2350512340844642e-08 0.0000000000000000e+00  -2.9237112110650233e-07 7.0816251350811375e-08 0.0000000000000000e+00  -3.1941413683369853e-07 6.5358117004615849e-08 0.0000000000000000e+00  -3.4281140543545620e-07 5.6158236627124567e-08 0.0000000000000000e+00  -3.6113782625883561e-07 4.3654032399434809e-08 0.0000000000000000e+00  -3.7320719598395284e-07 2.8450924711833582e-08 0.0000000000000000e+00  -3.7829632571467913e-07 1.1195391915191749e-08 0.0000000000000000e+00  -3.7572865353476321e-07 -7.4779698500880719e-09 0.0000000000000000e+00  -3.6562190222569752e-07 -2.7102447847511531e-08 0.0000000000000000e+00  -3.4715874793234341e-07 -4.7186760286457980e-08 0.0000000000000000e+00  -3.2192712872940891e-07 -6.7683508346294863e-08 0.0000000000000000e+00  -2.8689131431282901e-07 -8.7879781437984329e-08 0.0000000000000000e+00  -2.4870711352614867e-07 -1.0868733750306300e-07 0.0000000000000000e+00  -1.9443790858832978e-07 -1.2740823075907041e-07 0.0000000000000000e+00  -1.5150642295555121e-07 -1.4877571029275956e-07 0.0000000000000000e+00  -6.5951630446312408e-08 -1.6073571647695736e-07 0.0000000000000000e+00  -5.0004891701885168e-08 -1.8555999595826485e-07 0.0000000000000000e+00  1.1741659341393873e-07 -1.7063664240297703e-07 0.0000000000000000e+00  -1.5815542794372582e-08 -2.1700595733461264e-07 0.0000000000000000e+00  4.3344828533949094e-07 -1.0327896624500933e-07 0.0000000000000000e+00  -3.2710286276195983e-07 -2.7131375485866686e-07 0.0000000000000000e+00  1.0411715700780343e-06 1.7351157790261898e-07 0.0000000000000000e+00  -2.4726040077266243e-06 -5.7343289292026062e-07 0.0000000000000000e+00  2.5316649465494897e-06 1.4568896677558393e-06 0.0000000000000000e+00  0.0000000000000000e+00 0.0000000000000000e+00 0.0000000000000000e+00  0.0000000000000000e+00 0.0000000000000000e+00 0.0000000000000000e+00  -2.1740262174250094e-06 1.1666364349852376e-06 0.0000000000000000e+00  1.8312630915360522e-06 -1.3322743289611603e-07 0.0000000000000000e+00  -3.1923117400972590e-07 2.3158496021259066e-07 0.0000000000000000e+00  3.4469889843475546e-08 -4.1594108410587809e-08 0.0000000000000000e+00  -1.0478775897044686e-07 -7.9904744194578474e-08 0.0000000000000000e+00  -1.5668984518949808e-07 -1.3267480447513770e-07 0.0000000000000000e+00  -1.6454204066955604e-07 -1.4837970908997545e-07 0.0000000000000000e+00  -1.8054770696375094e-07 -1.4813189003162436e-07 0.0000000000000000e+00  -1.8040502700185323e-07 -1.3784674417242145e-07 0.0000000000000000e+00  -1.7535307845836970e-07 -1.2197151415395071e-07 0.0000000000000000e+00  -1.6812059591983986e-07 -1.0334872950070582e-07 0.0000000000000000e+00  -1.6007276121770662e-07 -8.3602332539750752e-08 0.0000000000000000e+00  -1.5301405320605842e-07 -6.3670654371691031e-08 0.0000000000000000e+00  -1.4776291572969642e-07 -4.4029963004634550e-08 0.0000000000000000e+00  -1.4489149386901513e-07 -2.4869119591532391e-08 0.0000000000000000e+00  -1.4478053173154943e-07 -6.2097087820114658e-09 0.0000000000000000e+00  -1.4768177609208801e-07 1.1986853519199257e-08 0.0000000000000000e+00  -1.5378572056593891e-07 2.9706711180499528e-08 0.0000000000000000e+00  -1.6321224919362937e-07 4.6771624840241671e-08 0.0000000000000000e+00  -1.7595884660312361e-07 6.2748144061925725e-08 0.0000000000000000e+00  -1.9181013689477915e-07 7.6913326306877893e-08 0.0000000000000000e+00  -2.1024062356108661e-07 8.8308302271902654e-08 0.0000000000000000e+00  -2.3035291002340475e-07 9.5885490735684767e-08 0.0000000000000000e+00  -2.5089866191567058e-07 9.8716874144375405e-08 0.0000000000000000e+00  -2.7038597303048824e-07 9.6199552127694615e-08 0.0000000000000000e+00  -2.8727792065056513e-07 8.8189052968644088e-08 0.0000000000000000e+00  -3.0017662280135882e-07 7.5021072545375190e-08 0.0000000000000000e+00  -3.0804004178564147e-07 5.7417517558075631e-08 0.0000000000000000e+00  -3.1016997434973862e-07 3.6332909151207404e-08 0.0000000000000000e+00  -3.0641310458486792e-07 1.2759591218924397e-08 0.0000000000000000e+00  -2.9667818287939030e-07 -1.2371133567024645e-08 0.0000000000000000e+00  -2.8168740562583785e-07 -3.8368977646865390e-08 0.0000000000000000e+00  -2.6114705947046836e-07 -6.4579415977605745e-08 0.0000000000000000e+00  -2.3723757154503773e-07 -9.0839139542063153e-08 0.0000000000000000e+00  -2.0732929002604127e-07 -1.1631346819258362e-07 0.0000000000000000e+00  -1.7881938045583741e-07 -1.4176438106328843e-07 0.0000000000000000e+00  -1.3902476016701027e-07 -1.6428745832904600e-07 0.0000000000000000e+00  -1.1657040879437699e-07 -1.8819210470873674e-07 0.0000000000000000e+00  -5.7470669017851334e-08 -2.0131280856011646e-07 0.0000000000000000e+00  -7.5482229814219193e-08 -2.2448839566936243e-07 0.0000000000000000e+00  4.9913622297638826e-08 -2.0746589085058412e-07 0.0000000000000000e+00  -1.3009760699408065e-07 -2.4495804979177141e-07 0.0000000000000000e+00  2.5582413177805342e-07 -1.3490518579795534e-07 0.0000000000000000e+00  -5.4347553215898166e-07 -2.8197881307727044e-07 0.0000000000000000e+00  7.3550647976655453e-07 1.1219211017654897e-07 0.0000000000000000e+00  -2.6996925770200618e-06 -5.2298236884052689e-07 0.0000000000000000e+00  2.1410697929496203e-06 1.2449867363103360e-06 0.0000000000000000e+00  0.0000000000000000e+00 0.0000000000000000e+00 0.0000000000000000e+00  0.0000000000000000e+00 0.0000000000000000e+00 0.0000000000000000e+00  -2.4251250442018057e-06 1.2012015717066319e-06 0.0000000000000000e+00  2.4461159722471245e-06 -1.6884921850381991e-07 0.0000000000000000e+00  -6.1322776816293732e-07 3.0938359385133317e-07 0.0000000000000000e+00  3.0943127200718299e-07 -3.1538036174247263e-08 0.0000000000000000e+00  -1.1299602119275236e-07 -1.3702476845166947e-08 0.0000000000000000e+00  -5.5607168477599173e-08 -1.0029930960235317e-07 0.0000000000000000e+00  -9.8083702393452678e-08 -1.2120953890596270e-07 0.0000000000000000e+00  -1.2596797404433425e-07 -1.3455087676836998e-07 0.0000000000000000e+00  -1.3743341316400323e-07 -1.3223037180071246e-07 0.0000000000000000e+00  -1.4747043499368383e-07 -1.2176867893519280e-07 0.0000000000000000e+00  -1.5187963492037240e-07 -1.0605969839819497e-07 0.0000000000000000e+00  -1.5391207477427622e-07 -8.7385879489848574e-08 0.0000000000000000e+00  -1.5490969894004020e-07 -6.7258255855155415e-08 0.0000000000000000e+00  -1.5567200655375008e-07 -4.6559700441567154e-08 0.0000000000000000e+00  -1.5695864147694177e-07 -2.5776048072579369e-08 0.0000000000000000e+00  -1.5923621076826082e-07 -5.1044112933394674e-09 0.0000000000000000e+00  -1.6288363460808372e-07 1.5404058168956906e-08 0.0000000000000000e+00  -1.6823308876658832e-07 3.5691716162684524e-08 0.0000000000000000e+00  -1.7557187442158169e-07 5.5525527350627947e-08 0.0000000000000000e+00  -1.8508985844389790e-07 7.4342921398043821e-08 0.0000000000000000e+00  -1.9676058587364484e-07 9.1173139694609243e-08 0.0000000000000000e+00  -2.1020334537705672e-07 1.0469387532440801e-07 0.0000000000000000e+00  -2.2458822396905134e-07 1.1344406795857771e-07 0.0000000000000000e+00  -2.3865969298839511e-07 1.1614353342346323e-07 0.0000000000000000e+00  -2.5089314740324922e-07 1.1200998572625013e-07 0.0000000000000000e+00  -2.5977767095542138e-07 1.0095392184997255e-07 0.0000000000000000e+00  -2.6407547547986356e-07 8.3586656029822431e-08 0.0000000000000000e+00  -2.6308228092028378e-07 6.1049189391387909e-08 0.0000000000000000e+00  -2.5658471227569549e-07 3.4755155051952192e-08 0.0000000000000000e+00  -2.4502337883724504e-07 6.1068555022277040e-09 0.0000000000000000e+00  -2.2888797301352258e-07 -2.3653918365368206e-08 0.0000000000000000e+00  -2.0949610950850933e-07 -5.3631334338512932e-08 0.0000000000000000e+00  -1.8695362391335973e-07 -8.3046428679265173e-08 0.0000000000000000e+00  -1.6397414558312891e-07 -1.1163983875107491e-07 0.0000000000000000e+00  -1.3795463402683312e-07 -1.3849079839332777e-07 0.0000000000000000e+00  -1.1706265816571119e-07 -1.6417387521499795e-07 0.0000000000000000e+00  -8.7786137244243601e-08 -1.8567664455144281e-07 0.0000000000000000e+00  -8.0688404739394751e-08 -2.0678496018882677e-07 0.0000000000000000e+00  -3.8266949993861200e-08 -2.1571865423367123e-07 0.0000000000000000e+00  -8.0093018182484448e-08 -2.3174431483630227e-07 0.0000000000000000e+00  2.6391639100809226e-08 -2.0853217418585645e-07 0.0000000000000000e+00  -1.8514537229265087e-07 -2.3424050709175463e-07 0.0000000000000000e+00  1.9245510467546750e-07 -1.2734264217962022e-07 0.0000000000000000e+00  -6.3905745710855192e-07 -2.5655230448280523e-07 0.0000000000000000e+00  6.6615320721534209e-07 9.1036710336465008e-08 0.0000000000000000e+00  -2.7636013771321053e-06 -4.6919419931759587e-07 0.0000000000000000e+00  2.1212236185390196e-06 1.0864135051473912e-06 0.0000000000000000e+00  0.0000000000000000e+00 0.0000000000000000e+00 0.0000000000000000e+00  0.0000000000000000e+00 0.0000000000000000e+00 0.0000000000000000e+00  -2.3750782378832788e-06 1.0862394106278584e-06 0.0000000000000000e+00  2.6900368659059169e-06 -1.5784763044822512e-07 0.0000000000000000e+00  -7.5264648268998007e-07 3.0789976169101120e-07 0.0000000000000000e+00  5.2177735830540827e-07 -2.0629891852439220e-08 0.0000000000000000e+00  -1.5810240780124758e-07 3.8136695290026779e-08 0.0000000000000000e+00  5.8039611648298140e-08 -6.8395811713502427e-08 0.0000000000000000e+00  -5.1175194180105260e-08 -8.4219459482392310e-08 0.0000000000000000e+00  -6.1314466105518559e-08 -1.1020074332610795e-07 0.0000000000000000e+00  -8.5813259968571285e-08 -1.1358418057887796e-07 0.0000000000000000e+00  -1.0578508571609139e-07 -1.0941686203311630e-07 0.0000000000000000e+00  -1.1932672184028251e-07 -9.7716782589513839e-08 0.0000000000000000e+00  -1.3065148126683623e-07 -8.1711895889696713e-08 0.0000000000000000e+00  -1.3937095792627480e-07 -6.3081659636465774e-08 0.0000000000000000e+00  -1.4657363999204868e-07 -4.3036965339800570e-08 0.0000000000000000e+00  -1.5289592447333139e-07 -2.2314045072826200e-08 0.0000000000000000e+00  -1.5879323436885012e-07 -1.2585134094760040e-09 0.0000000000000000e+00  -1.6471305724311169e-07 2.0014572035053122e-08 0.0000000000000000e+00  -1.7108063734955242e-07 4.1449894305869556e-08 0.0000000000000000e+00  -1.7834045526263210e-07 6.2815171780763030e-08 0.0000000000000000e+00  -1.8688537333858403e-07 8.3457783368768247e-08 0.0000000000000000e+00  -1.9689088013874405e-07 1.0214754406370280e-07 0.0000000000000000e+00  -2.0810310661453668e-07 1.1712216815819147e-07 0.0000000000000000e+00  -2.1967919601694422e-07 1.2639294058433267e-07 0.0000000000000000e+00  -2.3020873440356110e-07 1.2823779371084771e-07 0.0000000000000000e+00  -2.3795392531386155e-07 1.2169132128721146e-07 0.0000000000000000e+00  -2.4127583731153881e-07 1.0682273462910739e-07 0.0000000000000000e+00  -2.3902082143686528e-07 8.4699053494460979e-08 0.0000000000000000e+00  -2.3083610507859672e-07 5.7072719659913202e-08 0.0000000000000000e+00  -2.1707044967841390e-07 2.5959494316500805e-08 0.0000000000000000e+00  -1.9884404750607256e-07 -6.7691648988072946e-09 0.0000000000000000e+00  -1.7728711951772025e-07 -3.9584565472957738e-08 0.0000000000000000e+00  -1.5430065185545114e-07 -7.1470213073273547e-08 0.0000000000000000e+00  -1.3034386957587729e-07 -1.0163552552579092e-07 0.0000000000000000e+00  -1.0850263717536861e-07 -1.298495