<?xml version="1.0"?>
<VTKFile type="UnstructuredGrid"  version="0.1"  >
<UnstructuredGrid>
<Piece  NumberOfPoints="1617" NumberOfCells="3072">
<Points>
<DataArray  type="Float64"  NumberOfComponents="3"  format="ascii">0 0 0  0.03125 0 0  0.0625 0 0  0.09375 0 0  0.125 0 0  0.15625 0 0  0.1875 0 0  0.21875 0 0  0.25 0 0  0.28125 0 0  0.3125 0 0  0.34375 0 0  0.375 0 0  0.40625 0 0  0.4375 0 0  0.46875 0 0  0.5 0 0  0.53125 0 0  0.5625 0 0  0.59375 0 0  0.625 0 0  0.65625 0 0  0.6875 0 0  0.71875 0 0  0.75 0 0  0.78125 0 0  0.8125 0 0  0.84375 0 0  0.875 0 0  0.90625 0 0  0.9375 0 0  0.96875 0 0  1 0 0  1.03125 0 0  1.0625 0 0  1.09375 0 0  1.125 0 0  1.15625 0 0  1.1875 0 0  1.21875 0 0  1.25 0 0  1.28125 0 0  1.3125 0 0  1.34375 0 0  1.375 0 0  1.40625 0 0  1.4375 0 0  1.46875 0 0  1.5 0 0  0 0.03125 0  0.03125 0.03125 0  0.0625 0.03125 0  0.09375 0.03125 0  0.125 0.03125 0  0.15625 0.03125 0  0.1875 0.03125 0  0.21875 0.03125 0  0.25 0.03125 0  0.28125 0.03125 0  0.3125 0.03125 0  0.34375 0.03125 0  0.375 0.03125 0  0.40625 0.03125 0  0.4375 0.03125 0  0.46875 0.03125 0  0.5 0.03125 0  0.53125 0.03125 0  0.5625 0.03125 0  0.59375 0.03125 0  0.625 0.03125 0  0.65625 0.03125 0  0.6875 0.03125 0  0.71875 0.03125 0  0.75 0.03125 0  0.78125 0.03125 0  0.8125 0.03125 0  0.84375 0.03125 0  0.875 0.03125 0  0.90625 0.03125 0  0.9375 0.03125 0  0.96875 0.03125 0  1 0.03125 0  1.03125 0.03125 0  1.0625 0.03125 0  1.09375 0.03125 0  1.125 0.03125 0  1.15625 0.03125 0  1.1875 0.03125 0  1.21875 0.03125 0  1.25 0.03125 0  1.28125 0.03125 0  1.3125 0.03125 0  1.34375 0.03125 0  1.375 0.03125 0  1.40625 0.03125 0  1.4375 0.03125 0  1.46875 0.03125 0  1.5 0.03125 0  0 0.0625 0  0.03125 0.0625 0  0.0625 0.0625 0  0.09375 0.0625 0  0.125 0.0625 0  0.15625 0.0625 0  0.1875 0.0625 0  0.21875 0.0625 0  0.25 0.0625 0  0.28125 0.0625 0  0.3125 0.0625 0  0.34375 0.0625 0  0.375 0.0625 0  0.40625 0.0625 0  0.4375 0.0625 0  0.46875 0.0625 0  0.5 0.0625 0  0.53125 0.0625 0  0.5625 0.0625 0  0.59375 0.0625 0  0.625 0.0625 0  0.65625 0.0625 0  0.6875 0.0625 0  0.71875 0.0625 0  0.75 0.0625 0  0.78125 0.0625 0  0.8125 0.0625 0  0.84375 0.0625 0  0.875 0.0625 0  0.90625 0.0625 0  0.9375 0.0625 0  0.96875 0.0625 0  1 0.0625 0  1.03125 0.0625 0  1.0625 0.0625 0  1.09375 0.0625 0  1.125 0.0625 0  1.15625 0.0625 0  1.1875 0.0625 0  1.21875 0.0625 0  1.25 0.0625 0  1.28125 0.0625 0  1.3125 0.0625 0  1.34375 0.0625 0  1.375 0.0625 0  1.40625 0.0625 0  1.4375 0.0625 0  1.46875 0.0625 0  1.5 0.0625 0  0 0.09375 0  0.03125 0.09375 0  0.0625 0.09375 0  0.09375 0.09375 0  0.125 0.09375 0  0.15625 0.09375 0  0.1875 0.09375 0  0.21875 0.09375 0  0.25 0.09375 0  0.28125 0.09375 0  0.3125 0.09375 0  0.34375 0.09375 0  0.375 0.09375 0  0.40625 0.09375 0  0.4375 0.09375 0  0.46875 0.09375 0  0.5 0.09375 0  0.53125 0.09375 0  0.5625 0.09375 0  0.59375 0.09375 0  0.625 0.09375 0  0.65625 0.09375 0  0.6875 0.09375 0  0.71875 0.09375 0  0.75 0.09375 0  0.78125 0.09375 0  0.8125 0.09375 0  0.84375 0.09375 0  0.875 0.09375 0  0.90625 0.09375 0  0.9375 0.09375 0  0.96875 0.09375 0  1 0.09375 0  1.03125 0.09375 0  1.0625 0.09375 0  1.09375 0.09375 0  1.125 0.09375 0  1.15625 0.09375 0  1.1875 0.09375 0  1.21875 0.09375 0  1.25 0.09375 0  1.28125 0.09375 0  1.3125 0.09375 0  1.34375 0.09375 0  1.375 0.09375 0  1.40625 0.09375 0  1.4375 0.09375 0  1.46875 0.09375 0  1.5 0.09375 0  0 0.125 0  0.03125 0.125 0  0.0625 0.125 0  0.09375 0.125 0  0.125 0.125 0  0.15625 0.125 0  0.1875 0.125 0  0.21875 0.125 0  0.25 0.125 0  0.28125 0.125 0  0.3125 0.125 0  0.34375 0.125 0  0.375 0.125 0  0.40625 0.125 0  0.4375 0.125 0  0.46875 0.125 0  0.5 0.125 0  0.53125 0.125 0  0.5625 0.125 0  0.59375 0.125 0  0.625 0.125 0  0.65625 0.125 0  0.6875 0.125 0  0.71875 0.125 0  0.75 0.125 0  0.78125 0.125 0  0.8125 0.125 0  0.84375 0.125 0  0.875 0.125 0  0.90625 0.125 0  0.9375 0.125 0  0.96875 0.125 0  1 0.125 0  1.03125 0.125 0  1.0625 0.125 0  1.09375 0.125 0  1.125 0.125 0  1.15625 0.125 0  1.1875 0.125 0  1.21875 0.125 0  1.25 0.125 0  1.28125 0.125 0  1.3125 0.125 0  1.34375 0.125 0  1.375 0.125 0  1.40625 0.125 0  1.4375 0.125 0  1.46875 0.125 0  1.5 0.125 0  0 0.15625 0  0.03125 0.15625 0  0.0625 0.15625 0  0.09375 0.15625 0  0.125 0.15625 0  0.15625 0.15625 0  0.1875 0.15625 0  0.21875 0.15625 0  0.25 0.15625 0  0.28125 0.15625 0  0.3125 0.15625 0  0.34375 0.15625 0  0.375 0.15625 0  0.40625 0.15625 0  0.4375 0.15625 0  0.46875 0.15625 0  0.5 0.15625 0  0.53125 0.15625 0  0.5625 0.15625 0  0.59375 0.15625 0  0.625 0.15625 0  0.65625 0.15625 0  0.6875 0.15625 0  0.71875 0.15625 0  0.75 0.15625 0  0.78125 0.15625 0  0.8125 0.15625 0  0.84375 0.15625 0  0.875 0.15625 0  0.90625 0.15625 0  0.9375 0.15625 0  0.96875 0.15625 0  1 0.15625 0  1.03125 0.15625 0  1.0625 0.15625 0  1.09375 0.15625 0  1.125 0.15625 0  1.15625 0.15625 0  1.1875 0.15625 0  1.21875 0.15625 0  1.25 0.15625 0  1.28125 0.15625 0  1.3125 0.15625 0  1.34375 0.15625 0  1.375 0.15625 0  1.40625 0.15625 0  1.4375 0.15625 0  1.46875 0.15625 0  1.5 0.15625 0  0 0.1875 0  0.03125 0.1875 0  0.0625 0.1875 0  0.09375 0.1875 0  0.125 0.1875 0  0.15625 0.1875 0  0.1875 0.1875 0  0.21875 0.1875 0  0.25 0.1875 0  0.28125 0.1875 0  0.3125 0.1875 0  0.34375 0.1875 0  0.375 0.1875 0  0.40625 0.1875 0  0.4375 0.1875 0  0.46875 0.1875 0  0.5 0.1875 0  0.53125 0.1875 0  0.5625 0.1875 0  0.59375 0.1875 0  0.625 0.1875 0  0.65625 0.1875 0  0.6875 0.1875 0  0.71875 0.1875 0  0.75 0.1875 0  0.78125 0.1875 0  0.8125 0.1875 0  0.84375 0.1875 0  0.875 0.1875 0  0.90625 0.1875 0  0.9375 0.1875 0  0.96875 0.1875 0  1 0.1875 0  1.03125 0.1875 0  1.0625 0.1875 0  1.09375 0.1875 0  1.125 0.1875 0  1.15625 0.1875 0  1.1875 0.1875 0  1.21875 0.1875 0  1.25 0.1875 0  1.28125 0.1875 0  1.3125 0.1875 0  1.34375 0.1875 0  1.375 0.1875 0  1.40625 0.1875 0  1.4375 0.1875 0  1.46875 0.1875 0  1.5 0.1875 0  0 0.21875 0  0.03125 0.21875 0  0.0625 0.21875 0  0.09375 0.21875 0  0.125 0.21875 0  0.15625 0.21875 0  0.1875 0.21875 0  0.21875 0.21875 0  0.25 0.21875 0  0.28125 0.21875 0  0.3125 0.21875 0  0.34375 0.21875 0  0.375 0.21875 0  0.40625 0.21875 0  0.4375 0.21875 0  0.46875 0.21875 0  0.5 0.21875 0  0.53125 0.21875 0  0.5625 0.21875 0  0.59375 0.21875 0  0.625 0.21875 0  0.65625 0.21875 0  0.6875 0.21875 0  0.71875 0.21875 0  0.75 0.21875 0  0.78125 0.21875 0  0.8125 0.21875 0  0.84375 0.21875 0  0.875 0.21875 0  0.90625 0.21875 0  0.9375 0.21875 0  0.96875 0.21875 0  1 0.21875 0  1.03125 0.21875 0  1.0625 0.21875 0  1.09375 0.21875 0  1.125 0.21875 0  1.15625 0.21875 0  1.1875 0.21875 0  1.21875 0.21875 0  1.25 0.21875 0  1.28125 0.21875 0  1.3125 0.21875 0  1.34375 0.21875 0  1.375 0.21875 0  1.40625 0.21875 0  1.4375 0.21875 0  1.46875 0.21875 0  1.5 0.21875 0  0 0.25 0  0.03125 0.25 0  0.0625 0.25 0  0.09375 0.25 0  0.125 0.25 0  0.15625 0.25 0  0.1875 0.25 0  0.21875 0.25 0  0.25 0.25 0  0.28125 0.25 0  0.3125 0.25 0  0.34375 0.25 0  0.375 0.25 0  0.40625 0.25 0  0.4375 0.25 0  0.46875 0.25 0  0.5 0.25 0  0.53125 0.25 0  0.5625 0.25 0  0.59375 0.25 0  0.625 0.25 0  0.65625 0.25 0  0.6875 0.25 0  0.71875 0.25 0  0.75 0.25 0  0.78125 0.25 0  0.8125 0.25 0  0.84375 0.25 0  0.875 0.25 0  0.90625 0.25 0  0.9375 0.25 0  0.96875 0.25 0  1 0.25 0  1.03125 0.25 0  1.0625 0.25 0  1.09375 0.25 0  1.125 0.25 0  1.15625 0.25 0  1.1875 0.25 0  1.21875 0.25 0  1.25 0.25 0  1.28125 0.25 0  1.3125 0.25 0  1.34375 0.25 0  1.375 0.25 0  1.40625 0.25 0  1.4375 0.25 0  1.46875 0.25 0  1.5 0.25 0  0 0.28125 0  0.03125 0.28125 0  0.0625 0.28125 0  0.09375 0.28125 0  0.125 0.28125 0  0.15625 0.28125 0  0.1875 0.28125 0  0.21875 0.28125 0  0.25 0.28125 0  0.28125 0.28125 0  0.3125 0.28125 0  0.34375 0.28125 0  0.375 0.28125 0  0.40625 0.28125 0  0.4375 0.28125 0  0.46875 0.28125 0  0.5 0.28125 0  0.53125 0.28125 0  0.5625 0.28125 0  0.59375 0.28125 0  0.625 0.28125 0  0.65625 0.28125 0  0.6875 0.28125 0  0.71875 0.28125 0  0.75 0.28125 0  0.78125 0.28125 0  0.8125 0.28125 0  0.84375 0.28125 0  0.875 0.28125 0  0.90625 0.28125 0  0.9375 0.28125 0  0.96875 0.28125 0  1 0.28125 0  1.03125 0.28125 0  1.0625 0.28125 0  1.09375 0.28125 0  1.125 0.28125 0  1.15625 0.28125 0  1.1875 0.28125 0  1.21875 0.28125 0  1.25 0.28125 0  1.28125 0.28125 0  1.3125 0.28125 0  1.34375 0.28125 0  1.375 0.28125 0  1.40625 0.28125 0  1.4375 0.28125 0  1.46875 0.28125 0  1.5 0.28125 0  0 0.3125 0  0.03125 0.3125 0  0.0625 0.3125 0  0.09375 0.3125 0  0.125 0.3125 0  0.15625 0.3125 0  0.1875 0.3125 0  0.21875 0.3125 0  0.25 0.3125 0  0.28125 0.3125 0  0.3125 0.3125 0  0.34375 0.3125 0  0.375 0.3125 0  0.40625 0.3125 0  0.4375 0.3125 0  0.46875 0.3125 0  0.5 0.3125 0  0.53125 0.3125 0  0.5625 0.3125 0  0.59375 0.3125 0  0.625 0.3125 0  0.65625 0.3125 0  0.6875 0.3125 0  0.71875 0.3125 0  0.75 0.3125 0  0.78125 0.3125 0  0.8125 0.3125 0  0.84375 0.3125 0  0.875 0.3125 0  0.90625 0.3125 0  0.9375 0.3125 0  0.96875 0.3125 0  1 0.3125 0  1.03125 0.3125 0  1.0625 0.3125 0  1.09375 0.3125 0  1.125 0.3125 0  1.15625 0.3125 0  1.1875 0.3125 0  1.21875 0.3125 0  1.25 0.3125 0  1.28125 0.3125 0  1.3125 0.3125 0  1.34375 0.3125 0  1.375 0.3125 0  1.40625 0.3125 0  1.4375 0.3125 0  1.46875 0.3125 0  1.5 0.3125 0  0 0.34375 0  0.03125 0.34375 0  0.0625 0.34375 0  0.09375 0.34375 0  0.125 0.34375 0  0.15625 0.34375 0  0.1875 0.34375 0  0.21875 0.34375 0  0.25 0.34375 0  0.28125 0.34375 0  0.3125 0.34375 0  0.34375 0.34375 0  0.375 0.34375 0  0.40625 0.34375 0  0.4375 0.34375 0  0.46875 0.34375 0  0.5 0.34375 0  0.53125 0.34375 0  0.5625 0.34375 0  0.59375 0.34375 0  0.625 0.34375 0  0.65625 0.34375 0  0.6875 0.34375 0  0.71875 0.34375 0  0.75 0.34375 0  0.78125 0.34375 0  0.8125 0.34375 0  0.84375 0.34375 0  0.875 0.34375 0  0.90625 0.34375 0  0.9375 0.34375 0  0.96875 0.34375 0  1 0.34375 0  1.03125 0.34375 0  1.0625 0.34375 0  1.09375 0.34375 0  1.125 0.34375 0  1.15625 0.34375 0  1.1875 0.34375 0  1.21875 0.34375 0  1.25 0.34375 0  1.28125 0.34375 0  1.3125 0.34375 0  1.34375 0.34375 0  1.375 0.34375 0  1
[...]
<PointData  Vectors="f_17"> 
<DataArray  type="Float64"  Name="f_17"  NumberOfComponents="3" format="ascii">0.0000000000000000e+00 0.0000000000000000e+00 0.0000000000000000e+00  0.0000000000000000e+00 0.0000000000000000e+00 0.0000000000000000e+00  0.0000000000000000e+00 0.0000000000000000e+00 0.0000000000000000e+00  0.0000000000000000e+00 0.0000000000000000e+00 0.0000000000000000e+00  0.0000000000000000e+00 0.0000000000000000e+00 0.0000000000000000e+00  0.0000000000000000e+00 0.0000000000000000e+00 0.0000000000000000e+00  0.0000000000000000e+00 0.0000000000000000e+00 0.0000000000000000e+00  0.0000000000000000e+00 0.0000000000000000e+00 0.0000000000000000e+00  0.0000000000000000e+00 0.0000000000000000e+00 0.0000000000000000e+00  0.0000000000000000e+00 0.0000000000000000e+00 0.0000000000000000e+00  0.0000000000000000e+00 0.0000000000000000e+00 0.0000000000000000e+00  0.0000000000000000e+00 0.0000000000000000e+00 0.0000000000000000e+00  0.0000000000000000e+00 0.0000000000000000e+00 0.0000000000000000e+00  0.0000000000000000e+00 0.0000000000000000e+00 0.0000000000000000e+00  0.0000000000000000e+00 0.0000000000000000e+00 0.0000000000000000e+00  0.0000000000000000e+00 0.0000000000000000e+00 0.0000000000000000e+00  0.0000000000000000e+00 0.0000000000000000e+00 0.0000000000000000e+00  0.0000000000000000e+00 0.0000000000000000e+00 0.0000000000000000e+00  0.0000000000000000e+00 0.0000000000000000e+00 0.0000000000000000e+00  0.0000000000000000e+00 0.0000000000000000e+00 0.0000000000000000e+00  0.0000000000000000e+00 0.0000000000000000e+00 0.0000000000000000e+00  0.0000000000000000e+00 0.0000000000000000e+00 0.0000000000000000e+00  0.0000000000000000e+00 0.0000000000000000e+00 0.0000000000000000e+00  0.0000000000000000e+00 0.0000000000000000e+00 0.0000000000000000e+00  0.0000000000000000e+00 0.0000000000000000e+00 0.0000000000000000e+00  0.0000000000000000e+00 0.0000000000000000e+00 0.0000000000000000e+00  0.0000000000000000e+00 0.0000000000000000e+00 0.0000000000000000e+00  0.0000000000000000e+00 0.0000000000000000e+00 0.0000000000000000e+00  0.0000000000000000e+00 0.0000000000000000e+00 0.0000000000000000e+00  0.0000000000000000e+00 0.0000000000000000e+00 0.0000000000000000e+00  0.0000000000000000e+00 0.0000000000000000e+00 0.0000000000000000e+00  0.0000000000000000e+00 0.0000000000000000e+00 0.0000000000000000e+00  0.0000000000000000e+00 0.0000000000000000e+00 0.0000000000000000e+00  0.0000000000000000e+00 0.0000000000000000e+00 0.0000000000000000e+00  0.0000000000000000e+00 0.0000000000000000e+00 0.0000000000000000e+00  0.0000000000000000e+00 0.0000000000000000e+00 0.0000000000000000e+00  0.0000000000000000e+00 0.0000000000000000e+00 0.0000000000000000e+00  0.0000000000000000e+00 0.0000000000000000e+00 0.0000000000000000e+00  0.0000000000000000e+00 0.0000000000000000e+00 0.0000000000000000e+00  0.0000000000000000e+00 0.0000000000000000e+00 0.0000000000000000e+00  0.0000000000000000e+00 0.0000000000000000e+00 0.0000000000000000e+00  0.0000000000000000e+00 0.0000000000000000e+00 0.0000000000000000e+00  0.0000000000000000e+00 0.0000000000000000e+00 0.0000000000000000e+00  0.0000000000000000e+00 0.0000000000000000e+00 0.0000000000000000e+00  0.0000000000000000e+00 0.0000000000000000e+00 0.0000000000000000e+00  0.0000000000000000e+00 0.0000000000000000e+00 0.0000000000000000e+00  0.0000000000000000e+00 0.0000000000000000e+00 0.0000000000000000e+00  0.0000000000000000e+00 0.0000000000000000e+00 0.0000000000000000e+00  0.0000000000000000e+00 0.0000000000000000e+00 0.0000000000000000e+00  0.0000000000000000e+00 0.0000000000000000e+00 0.0000000000000000e+00  2.5740457749050010e-08 -5.8930662828765952e-09 0.0000000000000000e+00  -9.0615409402404901e-08 8.8010577082548940e-08 0.0000000000000000e+00  -1.0961357676743115e-08 -3.4789437495894465e-08 0.0000000000000000e+00  -1.9593886310221154e-07 -6.9672180616927164e-08 0.0000000000000000e+00  -1.7325646962988065e-07 -9.5451135404399680e-08 0.0000000000000000e+00  -1.5361370008791295e-07 -9.8362406219020242e-08 0.0000000000000000e+00  -1.3804408416898652e-07 -8.8806375475786604e-08 0.0000000000000000e+00  -1.1241006195538771e-07 -7.6808834074786183e-08 0.0000000000000000e+00  -8.8837570362476639e-08 -6.4039291522190325e-08 0.0000000000000000e+00  -6.7535414978535734e-08 -5.1752467039422481e-08 0.0000000000000000e+00  -4.9705079094512885e-08 -4.0378436028883188e-08 0.0000000000000000e+00  -3.6423141360659889e-08 -2.9954294981620857e-08 0.0000000000000000e+00  -2.7949015753845015e-08 -2.0434689237242157e-08 0.0000000000000000e+00  -2.4446402597570533e-08 -1.1704542616618576e-08 0.0000000000000000e+00  -2.5958769570853511e-08 -3.6210914468051187e-09 0.0000000000000000e+00  -3.2481719687989209e-08 3.9564022227343271e-09 0.0000000000000000e+00  -4.4010328377113144e-08 1.1139168084316853e-08 0.0000000000000000e+00  -6.0528915416598353e-08 1.7978586661652668e-08 0.0000000000000000e+00  -8.1974571985587139e-08 2.4438205801360136e-08 0.0000000000000000e+00  -1.0817213928517229e-07 3.0376327779298014e-08 0.0000000000000000e+00  -1.3875407734178395e-07 3.5548454315187730e-08 0.0000000000000000e+00  -1.7308754998527942e-07 3.9635674851324976e-08 0.0000000000000000e+00  -2.1022973151022853e-07 4.2297246518150267e-08 0.0000000000000000e+00  -2.4893603217740783e-07 4.3236214126395890e-08 0.0000000000000000e+00  -2.8771818229015432e-07 4.2260591902001570e-08 0.0000000000000000e+00  -3.2496394005753023e-07 3.9321846258892613e-08 0.0000000000000000e+00  -3.5905111756145775e-07 3.4522225089327028e-08 0.0000000000000000e+00  -3.8851529523384909e-07 2.8085934512042424e-08 0.0000000000000000e+00  -4.1206032099256718e-07 2.0318206046473961e-08 0.0000000000000000e+00  -4.2877964716407335e-07 1.1533179039703563e-08 0.0000000000000000e+00  -4.3779661766993331e-07 2.0459247656546505e-09 0.0000000000000000e+00  -4.3897525764666786e-07 -7.9536256482424879e-09 0.0000000000000000e+00  -4.3131560749506315e-07 -1.8199467098655287e-08 0.0000000000000000e+00  -4.1610307733780105e-07 -2.8834037684902868e-08 0.0000000000000000e+00  -3.9020976177095317e-07 -3.9292159232696157e-08 0.0000000000000000e+00  -3.5981197035740856e-07 -5.0720951072248869e-08 0.0000000000000000e+00  -3.1200165988274769e-07 -6.0517042102482376e-08 0.0000000000000000e+00  -2.7326222429583872e-07 -7.4156437300739011e-08 0.0000000000000000e+00  -1.8953964274280053e-07 -7.9214181432127085e-08 0.0000000000000000e+00  -1.7171889521604882e-07 -1.0107536085284032e-07 0.0000000000000000e+00  3.6715169193809220e-09 -8.3186891681043518e-08 0.0000000000000000e+00  -1.1698938053257249e-07 -1.3968473519166801e-07 0.0000000000000000e+00  3.6603264349911936e-07 -2.4669277359544267e-08 0.0000000000000000e+00  -3.7006019022661966e-07 -2.3324380085166064e-07 0.0000000000000000e+00  1.1475865378406201e-06 2.3871288778481874e-07 0.0000000000000000e+00  -2.4286151158801128e-06 -7.4788552937231279e-07 0.0000000000000000e+00  2.6889311663940177e-06 1.3651284331805434e-06 0.0000000000000000e+00  0.0000000000000000e+00 0.0000000000000000e+00 0.0000000000000000e+00  0.0000000000000000e+00 0.0000000000000000e+00 0.0000000000000000e+00  -1.2457752723417844e-06 6.3998461828539442e-07 0.0000000000000000e+00  8.1626561674501981e-07 -7.1779647590473869e-08 0.0000000000000000e+00  -5.1049355246104735e-08 6.3820163866043550e-08 0.0000000000000000e+00  -2.0771118392546341e-07 -5.2982443246483170e-08 0.0000000000000000e+00  -2.0927956776517081e-07 -1.0226583337352327e-07 0.0000000000000000e+00  -2.5481972766222170e-07 -1.2087294934214845e-07 0.0000000000000000e+00  -2.4255917487730934e-07 -1.2205044934071262e-07 0.0000000000000000e+00  -2.2156112737474542e-07 -1.1400523340329958e-07 0.0000000000000000e+00  -1.9761200828904905e-07 -1.0100939336059881e-07 0.0000000000000000e+00  -1.7200601713329291e-07 -8.5824613955157803e-08 0.0000000000000000e+00  -1.4925869329797727e-07 -6.9827584865381304e-08 0.0000000000000000e+00  -1.3042280026735461e-07 -5.3797837310525998e-08 0.0000000000000000e+00  -1.1626204877446973e-07 -3.8145915683767372e-08 0.0000000000000000e+00  -1.0719160439569082e-07 -2.3031521014896669e-08 0.0000000000000000e+00  -1.0332145866158150e-07 -8.4648421318831830e-09 0.0000000000000000e+00  -1.0467866318153135e-07 5.6188585679637400e-09 0.0000000000000000e+00  -1.1124202109500576e-07 1.9289830932630399e-08 0.0000000000000000e+00  -1.2296429121373329e-07 3.2550923174370067e-08 0.0000000000000000e+00  -1.3974985577751610e-07 4.5268325958437169e-08 0.0000000000000000e+00  -1.6138973362071075e-07 5.7121355252379101e-08 0.0000000000000000e+00  -1.8747276226955766e-07 6.7591604758565961e-08 0.0000000000000000e+00  -2.1729864209604058e-07 7.6007508486354569e-08 0.0000000000000000e+00  -2.4982311980825777e-07 8.1644331617123704e-08 0.0000000000000000e+00  -2.8366994409791924e-07 8.3858242547820213e-08 0.0000000000000000e+00  -3.1720860467695126e-07 8.2216895146480270e-08 0.0000000000000000e+00  -3.4870849653680507e-07 7.6586015051911350e-08 0.0000000000000000e+00  -3.7648466533459149e-07 6.7149284777528506e-08 0.0000000000000000e+00  -3.9909363392655368e-07 5.4354930427521381e-08 0.0000000000000000e+00  -4.1533857912859659e-07 3.8825334443440931e-08 0.0000000000000000e+00  -4.2449411127143509e-07 2.1226233440762646e-08 0.0000000000000000e+00  -4.2588883847397558e-07 2.2101575285593389e-09 0.0000000000000000e+00  -4.1965077860686675e-07 -1.7742249955679829e-08 0.0000000000000000e+00  -4.0497673312335762e-07 -3.8131034916397544e-08 0.0000000000000000e+00  -3.8347285289524310e-07 -5.8905378598954942e-08 0.0000000000000000e+00  -3.5212743057013508e-07 -7.9352941680114656e-08 0.0000000000000000e+00  -3.1763588689422278e-07 -1.0038968259674969e-07 0.0000000000000000e+00  -2.6709937437060440e-07 -1.1932590250943222e-07 0.0000000000000000e+00  -2.2802847788000232e-07 -1.4091838132804450e-07 0.0000000000000000e+00  -1.4639432626564261e-07 -1.5316519838980225e-07 0.0000000000000000e+00  -1.3464245036655275e-07 -1.7848093040125960e-07 0.0000000000000000e+00  2.9271729845254858e-08 -1.6450748982220096e-07 0.0000000000000000e+00  -1.0802934027503803e-07 -2.1291375873793713e-07 0.0000000000000000e+00  3.4209446571546990e-07 -1.0301230985630199e-07 0.0000000000000000e+00  -4.2237814110386835e-07 -2.7894711446503756e-07 0.0000000000000000e+00  9.7972744192821135e-07 1.5547630970075342e-07 0.0000000000000000e+00  -2.4490026196411820e-06 -6.1427207166500599e-07 0.0000000000000000e+00  2.6464681665696016e-06 1.4035115354264762e-06 0.0000000000000000e+00  0.0000000000000000e+00 0.0000000000000000e+00 0.0000000000000000e+00  0.0000000000000000e+00 0.0000000000000000e+00 0.0000000000000000e+00  -2.2985625548718343e-06 1.1011325819208792e-06 0.0000000000000000e+00  1.7634662445953114e-06 -1.8739124508049439e-07 0.0000000000000000e+00  -3.1770887366044662e-07 2.0649466989014101e-07 0.0000000000000000e+00  6.9547570055062406e-08 -4.6851515001451797e-08 0.0000000000000000e+00  -6.5958180330840486e-08 -7.2865498414617404e-08 0.0000000000000000e+00  -1.1254090900216392e-07 -1.1920033765899294e-07 0.0000000000000000e+00  -1.1888137106004272e-07 -1.3167381642655384e-07 0.0000000000000000e+00  -1.3593046090852754e-07 -1.3009955887451932e-07 0.0000000000000000e+00  -1.3839103068940757e-07 -1.1938472380772584e-07 0.0000000000000000e+00  -1.3683879376224078e-07 -1.0351395142682901e-07 0.0000000000000000e+00  -1.3356749155499875e-07 -8.5087140588507247e-08 0.0000000000000000e+00  -1.2969566850350541e-07 -6.5623823982023872e-08 0.0000000000000000e+00  -1.2688944982051929e-07 -4.6017926669827876e-08 0.0000000000000000e+00  -1.2589157171429545e-07 -2.6722978698699462e-08 0.0000000000000000e+00  -1.2723231513650258e-07 -7.9086144025912171e-09 0.0000000000000000e+00  -1.3127025023989124e-07 1.0424820339654828e-08 0.0000000000000000e+00  -1.3824863847135784e-07 2.8337896717729320e-08 0.0000000000000000e+00  -1.4836035730516195e-07 4.5835232485382411e-08 0.0000000000000000e+00  -1.6173587752029482e-07 6.2748587196727080e-08 0.0000000000000000e+00  -1.7838753850343770e-07 7.8642041278450580e-08 0.0000000000000000e+00  -1.9811380791722269e-07 9.2776110144759081e-08 0.0000000000000000e+00  -2.2039639946521540e-07 1.0416314168563988e-07 0.0000000000000000e+00  -2.4433428702520829e-07 1.1171991915671550e-07 0.0000000000000000e+00  -2.6866366920688853e-07 1.1448364547667742e-07 0.0000000000000000e+00  -2.9186839059665325e-07 1.1182519851716025e-07 0.0000000000000000e+00  -3.1238476397265928e-07 1.0358770708458231e-07 0.0000000000000000e+00  -3.2879282862737524e-07 9.0109682525454707e-08 0.0000000000000000e+00  -3.4003858117956718e-07 7.2128631472313190e-08 0.0000000000000000e+00  -3.4542400088709272e-07 5.0622436486509905e-08 0.0000000000000000e+00  -3.4480641716639332e-07 2.6608615729529499e-08 0.0000000000000000e+00  -3.3811176765537984e-07 1.0400336159159843e-09 0.0000000000000000e+00  -3.2608093605221331e-07 -2.5379134983399830e-08 0.0000000000000000e+00  -3.0843669988186725e-07 -5.1990595509253888e-08 0.0000000000000000e+00  -2.8737139928382147e-07 -7.8638651581725445e-08 0.0000000000000000e+00  -2.6026134822970559e-07 -1.0450839834050669e-07 0.0000000000000000e+00  -2.3450751165257146e-07 -1.3039622190437790e-07 0.0000000000000000e+00  -1.9740488713346574e-07 -1.5345197682710431e-07 0.0000000000000000e+00  -1.7756844310684951e-07 -1.7807535338175692e-07 0.0000000000000000e+00  -1.2080973231175856e-07 -1.9224791181890146e-07 0.0000000000000000e+00  -1.4089728909096404e-07 -2.1707596565371637e-07 0.0000000000000000e+00  -1.6163965637351388e-08 -2.0271192826845537e-07 0.0000000000000000e+00  -1.9635631627441000e-07 -2.4464988737127151e-07 0.0000000000000000e+00  1.9516084575518787e-07 -1.4159475763882440e-07 0.0000000000000000e+00  -6.0200750376144230e-07 -3.0026924333546087e-07 0.0000000000000000e+00  7.1466384540761697e-07 8.0190172869066253e-08 0.0000000000000000e+00  -2.6382524667223810e-06 -5.7840299377579663e-07 0.0000000000000000e+00  2.2738231503828890e-06 1.1807590688462661e-06 0.0000000000000000e+00  0.0000000000000000e+00 0.0000000000000000e+00 0.0000000000000000e+00  0.0000000000000000e+00 0.0000000000000000e+00 0.0000000000000000e+00  -2.5569221388796256e-06 1.1397029686937266e-06 0.0000000000000000e+00  2.3676719666455233e-06 -2.2864152487745298e-07 0.0000000000000000e+00  -6.2814109608582314e-07 2.7381403413916117e-07 0.0000000000000000e+00  3.2433004897510100e-07 -4.8262757847646443e-08 0.0000000000000000e+00  -9.7176441039522605e-08 -1.5051183051535135e-08 0.0000000000000000e+00  -3.2451068390941849e-08 -9.1791695158205529e-08 0.0000000000000000e+00  -7.1758274080592301e-08 -1.0659211233546838e-07 0.0000000000000000e+00  -9.8211374363188099e-08 -1.1647262349587415e-07 0.0000000000000000e+00  -1.0993891167445688e-07 -1.1223425138073403e-07 0.0000000000000000e+00  -1.2136175723466607e-07 -1.0081313484659534e-07 0.0000000000000000e+00  -1.2789349032459933e-07 -8.4704559651022977e-08 0.0000000000000000e+00  -1.3251729412645665e-07 -6.5971575876968796e-08 0.0000000000000000e+00  -1.3639338647775217e-07 -4.5994243526868293e-08 0.0000000000000000e+00  -1.4020162413555242e-07 -2.5573464552183067e-08 0.0000000000000000e+00  -1.4462083666829226e-07 -5.1354169840365060e-09 0.0000000000000000e+00  -1.5006355709243466e-07 1.5172232286515803e-08 0.0000000000000000e+00  -1.5687507451635209e-07 3.5341024646075697e-08 0.0000000000000000e+00  -1.6537072952648196e-07 5.5347378784495228e-08 0.0000000000000000e+00  -1.7583401215194776e-07 7.4979098838592738e-08 0.0000000000000000e+00  -1.8845859298639968e-07 9.3676358960261161e-08 0.0000000000000000e+00  -2.0322211638108562e-07 1.1045053709243908e-07 0.0000000000000000e+00  -2.1974026653041862e-07 1.2394310721474708e-07 0.0000000000000000e+00  -2.3716582172856036e-07 1.3264631764132038e-07 0.0000000000000000e+00  -2.5421126488382857e-07 1.3523457716009228e-07 0.0000000000000000e+00  -2.6931084795618942e-07 1.3089311146279123e-07 0.0000000000000000e+00  -2.8091375691597874e-07 1.1952017603572050e-07 0.0000000000000000e+00  -2.8775453820838357e-07 1.0173595070968124e-07 0.0000000000000000e+00  -2.8912035349916980e-07 7.8706416680898040e-08 0.0000000000000000e+00  -2.8480885806265075e-07 5.1877943146229367e-08 0.0000000000000000e+00  -2.7528586622729998e-07 2.2684401906431942e-08 0.0000000000000000e+00  -2.6107220158114844e-07 -7.6095064991579697e-09 0.0000000000000000e+00  -2.4351368555102502e-07 -3.8098992314202458e-08 0.0000000000000000e+00  -2.2273508121498595e-07 -6.8013382980206416e-08 0.0000000000000000e+00  -2.0145522438777411e-07 -9.7121131903692925e-08 0.0000000000000000e+00  -1.7705998928460782e-07 -1.2455123402888948e-07 0.0000000000000000e+00  -1.5769152981893495e-07 -1.5095463202578139e-07 0.0000000000000000e+00  -1.2977477214422790e-07 -1.7342975325969738e-07 0.0000000000000000e+00  -1.2381079158094753e-07 -1.9592453563999748e-07 0.0000000000000000e+00  -8.2039826938555429e-08 -2.0689114688864627e-07 0.0000000000000000e+00  -1.2400995733231200e-07 -2.2594652954774676e-07 0.0000000000000000e+00  -1.6024280311209343e-08 -2.0722489959389258e-07 0.0000000000000000e+00  -2.2553771725474688e-07 -2.3961522383107210e-07 0.0000000000000000e+00  1.5960854366123131e-07 -1.4215022553626872e-07 0.0000000000000000e+00  -6.6929721410243323e-07 -2.8488288886365516e-07 0.0000000000000000e+00  6.7133028453634072e-07 4.8302473362654920e-08 0.0000000000000000e+00  -2.6842373893709476e-06 -5.3272798077135443e-07 0.0000000000000000e+00  2.2609583068502455e-06 1.0184302205561684e-06 0.0000000000000000e+00  0.0000000000000000e+00 0.0000000000000000e+00 0.0000000000000000e+00  0.0000000000000000e+00 0.0000000000000000e+00 0.0000000000000000e+00  -2.5101204813934476e-06 1.0289419116059982e-06 0.0000000000000000e+00  2.6063046597070387e-06 -2.1722451283672733e-07 0.0000000000000000e+00  -7.7709937541683847e-07 2.6725392299978052e-07 0.0000000000000000e+00  5.2337241836380578e-07 -4.5189920826356129e-08 0.0000000000000000e+00  -1.5834011923620166e-07 2.9123759318652834e-08 0.0000000000000000e+00  6.4498934357216729e-08 -6.5855916197169845e-08 0.0000000000000000e+00  -4.1759155918630535e-08 -7.3513732009031065e-08 0.0000000000000000e+00  -4.9260195558224277e-08 -9.4127617487206331e-08 0.0000000000000000e+00  -7.2585324789053881e-08 -9.4059771909953770e-08 0.0000000000000000e+00  -9.2335562811292802e-08 -8.7797557262110584e-08 0.0000000000000000e+00  -1.0643310287757957e-07 -7.4898689385917539e-08 0.0000000000000000e+00  -1.1888452976585690e-07 -5.8301374943329702e-08 0.0000000000000000e+00  -1.2914400608078162e-07 -3.9483565207619781e-08 0.0000000000000000e+00  -1.3817846937718045e-07 -1.9518237824011398e-08 0.0000000000000000e+00  -1.4652992640821765e-07 9.6121299366838049e-10 0.0000000000000000e+00  -1.5458222655421347e-07 2.1691378202087142e-08 0.0000000000000000e+00  -1.6273190044930017e-07 4.2625516995210130e-08 0.0000000000000000e+00  -1.7137237278018398e-07 6.3762742471340275e-08 0.0000000000000000e+00  -1.8093248646837350e-07 8.4906640754583932e-08 0.0000000000000000e+00  -1.9179967527303707e-07 1.0541525171200105e-07 0.0000000000000000e+00  -2.0414457381350250e-07 1.2403935478825927e-07 0.0000000000000000e+00  -2.1769737734676545e-07 1.3897035416257333e-07 0.0000000000000000e+00  -2.3157899943748149e-07 1.4815772439195515e-07 0.0000000000000000e+00  -2.4432138037681387e-07 1.4982059977154993e-07 0.0000000000000000e+00  -2.5411768641602714e-07 1.4295576061005619e-07 0.0000000000000000e+00  -2.5926669355827443e-07 1.2762551164185066e-07 0.0000000000000000e+00  -2.5857708308766991e-07 1.0491961664907760e-07 0.0000000000000000e+00  -2.5169211528696867e-07 7.6632725229685574e-08 0.0000000000000000e+00  -2.3898753765626181e-07 4.4828252781373313e-08 0.0000000000000000e+00  -2.2162969871446676e-07 1.1417649058583335e-08 0.0000000000000000e+00  -2.0079955278691467e-07 -2.2047654585723782e-08 0.0000000000000000e+00  -1.7844012096884620e-07 -5.4551423433674479e-08 0.0000000000000000e+00  -1.5503566713892131e-07 -8.5329319740068490e-08 0.0000000000000000e+00  -1.3367545823880962e-07 -1.1420454012092