<?xml version="1.0"?>
<VTKFile type="UnstructuredGrid"  version="0.1"  >
<UnstructuredGrid>
<Piece  NumberOfPoints="1617" NumberOfCells="3072">
<Points>
<DataArray  type="Float64"  NumberOfComponents="3"  format="ascii">0 0 0  0.03125 0 0  0.0625 0 0  0.09375 0 0  0.125 0 0  0.15625 0 0  0.1875 0 0  0.21875 0 0  0.25 0 0  0.28125 0 0  0.3125 0 0  0.34375 0 0  0.375 0 0  0.40625 0 0  0.4375 0 0  0.46875 0 0  0.5 0 0  0.53125 0 0  0.5625 0 0  0.59375 0 0  0.625 0 0  0.65625 0 0  0.6875 0 0  0.71875 0 0  0.75 0 0  0.78125 0 0  0.8125 0 0  0.84375 0 0  0.875 0 0  0.90625 0 0  0.9375 0 0  0.96875 0 0  1 0 0  1.03125 0 0  1.0625 0 0  1.09375 0 0  1.125 0 0  1.15625 0 0  1.1875 0 0  1.21875 0 0  1.25 0 0  1.28125 0 0  1.3125 0 0  1.34375 0 0  1.375 0 0  1.40625 0 0  1.4375 0 0  1.46875 0 0  1.5 0 0  0 0.03125 0  0.03125 0.03125 0  0.0625 0.03125 0  0.09375 0.03125 0  0.125 0.03125 0  0.15625 0.03125 0  0.1875 0.03125 0  0.21875 0.03125 0  0.25 0.03125 0  0.28125 0.03125 0  0.3125 0.03125 0  0.34375 0.03125 0  0.375 0.03125 0  0.40625 0.03125 0  0.4375 0.03125 0  0.46875 0.03125 0  0.5 0.03125 0  0.53125 0.03125 0  0.5625 0.03125 0  0.59375 0.03125 0  0.625 0.03125 0  0.65625 0.03125 0  0.6875 0.03125 0  0.71875 0.03125 0  0.75 0.03125 0  0.78125 0.03125 0  0.8125 0.03125 0  0.84375 0.03125 0  0.875 0.03125 0  0.90625 0.03125 0  0.9375 0.03125 0  0.96875 0.03125 0  1 0.03125 0  1.03125 0.03125 0  1.0625 0.03125 0  1.09375 0.03125 0  1.125 0.03125 0  1.15625 0.03125 0  1.1875 0.03125 0  1.21875 0.03125 0  1.25 0.03125 0  1.28125 0.03125 0  1.3125 0.03125 0  1.34375 0.03125 0  1.375 0.03125 0  1.40625 0.03125 0  1.4375 0.03125 0  1.46875 0.03125 0  1.5 0.03125 0  0 0.0625 0  0.03125 0.0625 0  0.0625 0.0625 0  0.09375 0.0625 0  0.125 0.0625 0  0.15625 0.0625 0  0.1875 0.0625 0  0.21875 0.0625 0  0.25 0.0625 0  0.28125 0.0625 0  0.3125 0.0625 0  0.34375 0.0625 0  0.375 0.0625 0  0.40625 0.0625 0  0.4375 0.0625 0  0.46875 0.0625 0  0.5 0.0625 0  0.53125 0.0625 0  0.5625 0.0625 0  0.59375 0.0625 0  0.625 0.0625 0  0.65625 0.0625 0  0.6875 0.0625 0  0.71875 0.0625 0  0.75 0.0625 0  0.78125 0.0625 0  0.8125 0.0625 0  0.84375 0.0625 0  0.875 0.0625 0  0.90625 0.0625 0  0.9375 0.0625 0  0.96875 0.0625 0  1 0.0625 0  1.03125 0.0625 0  1.0625 0.0625 0  1.09375 0.0625 0  1.125 0.0625 0  1.15625 0.0625 0  1.1875 0.0625 0  1.21875 0.0625 0  1.25 0.0625 0  1.28125 0.0625 0  1.3125 0.0625 0  1.34375 0.0625 0  1.375 0.0625 0  1.40625 0.0625 0  1.4375 0.0625 0  1.46875 0.0625 0  1.5 0.0625 0  0 0.09375 0  0.03125 0.09375 0  0.0625 0.09375 0  0.09375 0.09375 0  0.125 0.09375 0  0.15625 0.09375 0  0.1875 0.09375 0  0.21875 0.09375 0  0.25 0.09375 0  0.28125 0.09375 0  0.3125 0.09375 0  0.34375 0.09375 0  0.375 0.09375 0  0.40625 0.09375 0  0.4375 0.09375 0  0.46875 0.09375 0  0.5 0.09375 0  0.53125 0.09375 0  0.5625 0.09375 0  0.59375 0.09375 0  0.625 0.09375 0  0.65625 0.09375 0  0.6875 0.09375 0  0.71875 0.09375 0  0.75 0.09375 0  0.78125 0.09375 0  0.8125 0.09375 0  0.84375 0.09375 0  0.875 0.09375 0  0.90625 0.09375 0  0.9375 0.09375 0  0.96875 0.09375 0  1 0.09375 0  1.03125 0.09375 0  1.0625 0.09375 0  1.09375 0.09375 0  1.125 0.09375 0  1.15625 0.09375 0  1.1875 0.09375 0  1.21875 0.09375 0  1.25 0.09375 0  1.28125 0.09375 0  1.3125 0.09375 0  1.34375 0.09375 0  1.375 0.09375 0  1.40625 0.09375 0  1.4375 0.09375 0  1.46875 0.09375 0  1.5 0.09375 0  0 0.125 0  0.03125 0.125 0  0.0625 0.125 0  0.09375 0.125 0  0.125 0.125 0  0.15625 0.125 0  0.1875 0.125 0  0.21875 0.125 0  0.25 0.125 0  0.28125 0.125 0  0.3125 0.125 0  0.34375 0.125 0  0.375 0.125 0  0.40625 0.125 0  0.4375 0.125 0  0.46875 0.125 0  0.5 0.125 0  0.53125 0.125 0  0.5625 0.125 0  0.59375 0.125 0  0.625 0.125 0  0.65625 0.125 0  0.6875 0.125 0  0.71875 0.125 0  0.75 0.125 0  0.78125 0.125 0  0.8125 0.125 0  0.84375 0.125 0  0.875 0.125 0  0.90625 0.125 0  0.9375 0.125 0  0.96875 0.125 0  1 0.125 0  1.03125 0.125 0  1.0625 0.125 0  1.09375 0.125 0  1.125 0.125 0  1.15625 0.125 0  1.1875 0.125 0  1.21875 0.125 0  1.25 0.125 0  1.28125 0.125 0  1.3125 0.125 0  1.34375 0.125 0  1.375 0.125 0  1.40625 0.125 0  1.4375 0.125 0  1.46875 0.125 0  1.5 0.125 0  0 0.15625 0  0.03125 0.15625 0  0.0625 0.15625 0  0.09375 0.15625 0  0.125 0.15625 0  0.15625 0.15625 0  0.1875 0.15625 0  0.21875 0.15625 0  0.25 0.15625 0  0.28125 0.15625 0  0.3125 0.15625 0  0.34375 0.15625 0  0.375 0.15625 0  0.40625 0.15625 0  0.4375 0.15625 0  0.46875 0.15625 0  0.5 0.15625 0  0.53125 0.15625 0  0.5625 0.15625 0  0.59375 0.15625 0  0.625 0.15625 0  0.65625 0.15625 0  0.6875 0.15625 0  0.71875 0.15625 0  0.75 0.15625 0  0.78125 0.15625 0  0.8125 0.15625 0  0.84375 0.15625 0  0.875 0.15625 0  0.90625 0.15625 0  0.9375 0.15625 0  0.96875 0.15625 0  1 0.15625 0  1.03125 0.15625 0  1.0625 0.15625 0  1.09375 0.15625 0  1.125 0.15625 0  1.15625 0.15625 0  1.1875 0.15625 0  1.21875 0.15625 0  1.25 0.15625 0  1.28125 0.15625 0  1.3125 0.15625 0  1.34375 0.15625 0  1.375 0.15625 0  1.40625 0.15625 0  1.4375 0.15625 0  1.46875 0.15625 0  1.5 0.15625 0  0 0.1875 0  0.03125 0.1875 0  0.0625 0.1875 0  0.09375 0.1875 0  0.125 0.1875 0  0.15625 0.1875 0  0.1875 0.1875 0  0.21875 0.1875 0  0.25 0.1875 0  0.28125 0.1875 0  0.3125 0.1875 0  0.34375 0.1875 0  0.375 0.1875 0  0.40625 0.1875 0  0.4375 0.1875 0  0.46875 0.1875 0  0.5 0.1875 0  0.53125 0.1875 0  0.5625 0.1875 0  0.59375 0.1875 0  0.625 0.1875 0  0.65625 0.1875 0  0.6875 0.1875 0  0.71875 0.1875 0  0.75 0.1875 0  0.78125 0.1875 0  0.8125 0.1875 0  0.84375 0.1875 0  0.875 0.1875 0  0.90625 0.1875 0  0.9375 0.1875 0  0.96875 0.1875 0  1 0.1875 0  1.03125 0.1875 0  1.0625 0.1875 0  1.09375 0.1875 0  1.125 0.1875 0  1.15625 0.1875 0  1.1875 0.1875 0  1.21875 0.1875 0  1.25 0.1875 0  1.28125 0.1875 0  1.3125 0.1875 0  1.34375 0.1875 0  1.375 0.1875 0  1.40625 0.1875 0  1.4375 0.1875 0  1.46875 0.1875 0  1.5 0.1875 0  0 0.21875 0  0.03125 0.21875 0  0.0625 0.21875 0  0.09375 0.21875 0  0.125 0.21875 0  0.15625 0.21875 0  0.1875 0.21875 0  0.21875 0.21875 0  0.25 0.21875 0  0.28125 0.21875 0  0.3125 0.21875 0  0.34375 0.21875 0  0.375 0.21875 0  0.40625 0.21875 0  0.4375 0.21875 0  0.46875 0.21875 0  0.5 0.21875 0  0.53125 0.21875 0  0.5625 0.21875 0  0.59375 0.21875 0  0.625 0.21875 0  0.65625 0.21875 0  0.6875 0.21875 0  0.71875 0.21875 0  0.75 0.21875 0  0.78125 0.21875 0  0.8125 0.21875 0  0.84375 0.21875 0  0.875 0.21875 0  0.90625 0.21875 0  0.9375 0.21875 0  0.96875 0.21875 0  1 0.21875 0  1.03125 0.21875 0  1.0625 0.21875 0  1.09375 0.21875 0  1.125 0.21875 0  1.15625 0.21875 0  1.1875 0.21875 0  1.21875 0.21875 0  1.25 0.21875 0  1.28125 0.21875 0  1.3125 0.21875 0  1.34375 0.21875 0  1.375 0.21875 0  1.40625 0.21875 0  1.4375 0.21875 0  1.46875 0.21875 0  1.5 0.21875 0  0 0.25 0  0.03125 0.25 0  0.0625 0.25 0  0.09375 0.25 0  0.125 0.25 0  0.15625 0.25 0  0.1875 0.25 0  0.21875 0.25 0  0.25 0.25 0  0.28125 0.25 0  0.3125 0.25 0  0.34375 0.25 0  0.375 0.25 0  0.40625 0.25 0  0.4375 0.25 0  0.46875 0.25 0  0.5 0.25 0  0.53125 0.25 0  0.5625 0.25 0  0.59375 0.25 0  0.625 0.25 0  0.65625 0.25 0  0.6875 0.25 0  0.71875 0.25 0  0.75 0.25 0  0.78125 0.25 0  0.8125 0.25 0  0.84375 0.25 0  0.875 0.25 0  0.90625 0.25 0  0.9375 0.25 0  0.96875 0.25 0  1 0.25 0  1.03125 0.25 0  1.0625 0.25 0  1.09375 0.25 0  1.125 0.25 0  1.15625 0.25 0  1.1875 0.25 0  1.21875 0.25 0  1.25 0.25 0  1.28125 0.25 0  1.3125 0.25 0  1.34375 0.25 0  1.375 0.25 0  1.40625 0.25 0  1.4375 0.25 0  1.46875 0.25 0  1.5 0.25 0  0 0.28125 0  0.03125 0.28125 0  0.0625 0.28125 0  0.09375 0.28125 0  0.125 0.28125 0  0.15625 0.28125 0  0.1875 0.28125 0  0.21875 0.28125 0  0.25 0.28125 0  0.28125 0.28125 0  0.3125 0.28125 0  0.34375 0.28125 0  0.375 0.28125 0  0.40625 0.28125 0  0.4375 0.28125 0  0.46875 0.28125 0  0.5 0.28125 0  0.53125 0.28125 0  0.5625 0.28125 0  0.59375 0.28125 0  0.625 0.28125 0  0.65625 0.28125 0  0.6875 0.28125 0  0.71875 0.28125 0  0.75 0.28125 0  0.78125 0.28125 0  0.8125 0.28125 0  0.84375 0.28125 0  0.875 0.28125 0  0.90625 0.28125 0  0.9375 0.28125 0  0.96875 0.28125 0  1 0.28125 0  1.03125 0.28125 0  1.0625 0.28125 0  1.09375 0.28125 0  1.125 0.28125 0  1.15625 0.28125 0  1.1875 0.28125 0  1.21875 0.28125 0  1.25 0.28125 0  1.28125 0.28125 0  1.3125 0.28125 0  1.34375 0.28125 0  1.375 0.28125 0  1.40625 0.28125 0  1.4375 0.28125 0  1.46875 0.28125 0  1.5 0.28125 0  0 0.3125 0  0.03125 0.3125 0  0.0625 0.3125 0  0.09375 0.3125 0  0.125 0.3125 0  0.15625 0.3125 0  0.1875 0.3125 0  0.21875 0.3125 0  0.25 0.3125 0  0.28125 0.3125 0  0.3125 0.3125 0  0.34375 0.3125 0  0.375 0.3125 0  0.40625 0.3125 0  0.4375 0.3125 0  0.46875 0.3125 0  0.5 0.3125 0  0.53125 0.3125 0  0.5625 0.3125 0  0.59375 0.3125 0  0.625 0.3125 0  0.65625 0.3125 0  0.6875 0.3125 0  0.71875 0.3125 0  0.75 0.3125 0  0.78125 0.3125 0  0.8125 0.3125 0  0.84375 0.3125 0  0.875 0.3125 0  0.90625 0.3125 0  0.9375 0.3125 0  0.96875 0.3125 0  1 0.3125 0  1.03125 0.3125 0  1.0625 0.3125 0  1.09375 0.3125 0  1.125 0.3125 0  1.15625 0.3125 0  1.1875 0.3125 0  1.21875 0.3125 0  1.25 0.3125 0  1.28125 0.3125 0  1.3125 0.3125 0  1.34375 0.3125 0  1.375 0.3125 0  1.40625 0.3125 0  1.4375 0.3125 0  1.46875 0.3125 0  1.5 0.3125 0  0 0.34375 0  0.03125 0.34375 0  0.0625 0.34375 0  0.09375 0.34375 0  0.125 0.34375 0  0.15625 0.34375 0  0.1875 0.34375 0  0.21875 0.34375 0  0.25 0.34375 0  0.28125 0.34375 0  0.3125 0.34375 0  0.34375 0.34375 0  0.375 0.34375 0  0.40625 0.34375 0  0.4375 0.34375 0  0.46875 0.34375 0  0.5 0.34375 0  0.53125 0.34375 0  0.5625 0.34375 0  0.59375 0.34375 0  0.625 0.34375 0  0.65625 0.34375 0  0.6875 0.34375 0  0.71875 0.34375 0  0.75 0.34375 0  0.78125 0.34375 0  0.8125 0.34375 0  0.84375 0.34375 0  0.875 0.34375 0  0.90625 0.34375 0  0.9375 0.34375 0  0.96875 0.34375 0  1 0.34375 0  1.03125 0.34375 0  1.0625 0.34375 0  1.09375 0.34375 0  1.125 0.34375 0  1.15625 0.34375 0  1.1875 0.34375 0  1.21875 0.34375 0  1.25 0.34375 0  1.28125 0.34375 0  1.3125 0.34375 0  1.34375 0.34375 0  1.375 0.34375 0  1
[...]
<PointData  Vectors="f_17"> 
<DataArray  type="Float64"  Name="f_17"  NumberOfComponents="3" format="ascii">0.0000000000000000e+00 0.0000000000000000e+00 0.0000000000000000e+00  0.0000000000000000e+00 0.0000000000000000e+00 0.0000000000000000e+00  0.0000000000000000e+00 0.0000000000000000e+00 0.0000000000000000e+00  0.0000000000000000e+00 0.0000000000000000e+00 0.0000000000000000e+00  0.0000000000000000e+00 0.0000000000000000e+00 0.0000000000000000e+00  0.0000000000000000e+00 0.0000000000000000e+00 0.0000000000000000e+00  0.0000000000000000e+00 0.0000000000000000e+00 0.0000000000000000e+00  0.0000000000000000e+00 0.0000000000000000e+00 0.0000000000000000e+00  0.0000000000000000e+00 0.0000000000000000e+00 0.0000000000000000e+00  0.0000000000000000e+00 0.0000000000000000e+00 0.0000000000000000e+00  0.0000000000000000e+00 0.0000000000000000e+00 0.0000000000000000e+00  0.0000000000000000e+00 0.0000000000000000e+00 0.0000000000000000e+00  0.0000000000000000e+00 0.0000000000000000e+00 0.0000000000000000e+00  0.0000000000000000e+00 0.0000000000000000e+00 0.0000000000000000e+00  0.0000000000000000e+00 0.0000000000000000e+00 0.0000000000000000e+00  0.0000000000000000e+00 0.0000000000000000e+00 0.0000000000000000e+00  0.0000000000000000e+00 0.0000000000000000e+00 0.0000000000000000e+00  0.0000000000000000e+00 0.0000000000000000e+00 0.0000000000000000e+00  0.0000000000000000e+00 0.0000000000000000e+00 0.0000000000000000e+00  0.0000000000000000e+00 0.0000000000000000e+00 0.0000000000000000e+00  0.0000000000000000e+00 0.0000000000000000e+00 0.0000000000000000e+00  0.0000000000000000e+00 0.0000000000000000e+00 0.0000000000000000e+00  0.0000000000000000e+00 0.0000000000000000e+00 0.0000000000000000e+00  0.0000000000000000e+00 0.0000000000000000e+00 0.0000000000000000e+00  0.0000000000000000e+00 0.0000000000000000e+00 0.0000000000000000e+00  0.0000000000000000e+00 0.0000000000000000e+00 0.0000000000000000e+00  0.0000000000000000e+00 0.0000000000000000e+00 0.0000000000000000e+00  0.0000000000000000e+00 0.0000000000000000e+00 0.0000000000000000e+00  0.0000000000000000e+00 0.0000000000000000e+00 0.0000000000000000e+00  0.0000000000000000e+00 0.0000000000000000e+00 0.0000000000000000e+00  0.0000000000000000e+00 0.0000000000000000e+00 0.0000000000000000e+00  0.0000000000000000e+00 0.0000000000000000e+00 0.0000000000000000e+00  0.0000000000000000e+00 0.0000000000000000e+00 0.0000000000000000e+00  0.0000000000000000e+00 0.0000000000000000e+00 0.0000000000000000e+00  0.0000000000000000e+00 0.0000000000000000e+00 0.0000000000000000e+00  0.0000000000000000e+00 0.0000000000000000e+00 0.0000000000000000e+00  0.0000000000000000e+00 0.0000000000000000e+00 0.0000000000000000e+00  0.0000000000000000e+00 0.0000000000000000e+00 0.0000000000000000e+00  0.0000000000000000e+00 0.0000000000000000e+00 0.0000000000000000e+00  0.0000000000000000e+00 0.0000000000000000e+00 0.0000000000000000e+00  0.0000000000000000e+00 0.0000000000000000e+00 0.0000000000000000e+00  0.0000000000000000e+00 0.0000000000000000e+00 0.0000000000000000e+00  0.0000000000000000e+00 0.0000000000000000e+00 0.0000000000000000e+00  0.0000000000000000e+00 0.0000000000000000e+00 0.0000000000000000e+00  0.0000000000000000e+00 0.0000000000000000e+00 0.0000000000000000e+00  0.0000000000000000e+00 0.0000000000000000e+00 0.0000000000000000e+00  0.0000000000000000e+00 0.0000000000000000e+00 0.0000000000000000e+00  0.0000000000000000e+00 0.0000000000000000e+00 0.0000000000000000e+00  0.0000000000000000e+00 0.0000000000000000e+00 0.0000000000000000e+00  0.0000000000000000e+00 0.0000000000000000e+00 0.0000000000000000e+00  1.5255829425933901e-07 2.8188084840990804e-08 0.0000000000000000e+00  -8.8991706263529168e-08 9.7322666233342182e-08 0.0000000000000000e+00  -6.5634968934411537e-08 -3.8265520717897804e-08 0.0000000000000000e+00  -2.6976713360653207e-07 -8.0147830530536231e-08 0.0000000000000000e+00  -2.4909995527175249e-07 -1.0687812824886654e-07 0.0000000000000000e+00  -2.2698221537227617e-07 -1.0912806871868209e-07 0.0000000000000000e+00  -2.0764240099493821e-07 -9.8711475983705544e-08 0.0000000000000000e+00  -1.7782601130700567e-07 -8.5968359589327644e-08 0.0000000000000000e+00  -1.5007824199235858e-07 -7.2644714692368418e-08 0.0000000000000000e+00  -1.2476804581354629e-07 -5.9964644153042946e-08 0.0000000000000000e+00  -1.0310868501922161e-07 -4.8290653403661840e-08 0.0000000000000000e+00  -8.6148268367943480e-08 -3.7600506895795947e-08 0.0000000000000000e+00  -7.4117105311336183e-08 -2.7813505580593517e-08 0.0000000000000000e+00  -6.7163556810881617e-08 -1.8803079254684803e-08 0.0000000000000000e+00  -6.5326789701512610e-08 -1.0431993775852783e-08 0.0000000000000000e+00  -6.8600968925415904e-08 -2.5741526770897038e-09 0.0000000000000000e+00  -7.6975116835606946e-08 4.8643930019160813e-09 0.0000000000000000e+00  -9.0418617143878629e-08 1.1919483302622721e-08 0.0000000000000000e+00  -1.0884388635124627e-07 1.8543398085398756e-08 0.0000000000000000e+00  -1.3204308487281105e-07 2.4588558186101183e-08 0.0000000000000000e+00  -1.5961126400940632e-07 2.9809976878805040e-08 0.0000000000000000e+00  -1.9087729105096967e-07 3.3892752178543989e-08 0.0000000000000000e+00  -2.2486269949656270e-07 3.6503082899947869e-08 0.0000000000000000e+00  -2.6029250375937074e-07 3.7352017080378223e-08 0.0000000000000000e+00  -2.9565455741822044e-07 3.6254907309056378e-08 0.0000000000000000e+00  -3.2931929264001874e-07 3.3168719328659706e-08 0.0000000000000000e+00  -3.5965292396126416e-07 2.8198959172142605e-08 0.0000000000000000e+00  -3.8518418843890273e-07 2.1571203166635412e-08 0.0000000000000000e+00  -4.0461415630328836e-07 1.3591077155530387e-08 0.0000000000000000e+00  -4.1703783348407028e-07 4.5733306249835016e-09 0.0000000000000000e+00  -4.2158516594239545e-07 -5.1649490730745934e-09 0.0000000000000000e+00  -4.1813364526785145e-07 -1.5429511057092667e-08 0.0000000000000000e+00  -4.0570385599500208e-07 -2.5947427978065051e-08 0.0000000000000000e+00  -3.8560820874081939e-07 -3.6852260478134596e-08 0.0000000000000000e+00  -3.5474536108410527e-07 -4.7570064185443506e-08 0.0000000000000000e+00  -3.1930181859338500e-07 -5.9242142525283777e-08 0.0000000000000000e+00  -2.6635514423696347e-07 -6.9267214534207841e-08 0.0000000000000000e+00  -2.2228152926232371e-07 -8.3128303583910873e-08 0.0000000000000000e+00  -1.3296187560532057e-07 -8.8418292264579283e-08 0.0000000000000000e+00  -1.0884924001798875e-07 -1.1049293696430219e-07 0.0000000000000000e+00  7.3060882007056992e-08 -9.2772962967950210e-08 0.0000000000000000e+00  -3.9230323100421621e-08 -1.4899444766024198e-07 0.0000000000000000e+00  4.5002200987594534e-07 -3.3183567889443171e-08 0.0000000000000000e+00  -2.7321467704542185e-07 -2.3812826312315716e-07 0.0000000000000000e+00  1.2326877399409540e-06 2.3831899735237716e-07 0.0000000000000000e+00  -2.4208654065748754e-06 -7.3430170063314498e-07 0.0000000000000000e+00  2.6329857106937412e-06 1.3891569482017710e-06 0.0000000000000000e+00  0.0000000000000000e+00 0.0000000000000000e+00 0.0000000000000000e+00  0.0000000000000000e+00 0.0000000000000000e+00 0.0000000000000000e+00  -1.1352057180133151e-06 7.0737213766099406e-07 0.0000000000000000e+00  8.5250199367023930e-07 -2.8779743155430352e-08 0.0000000000000000e+00  -9.0457832572840164e-08 7.9303768315034925e-08 0.0000000000000000e+00  -2.8145970996174951e-07 -5.3397034286927741e-08 0.0000000000000000e+00  -2.8940839352176217e-07 -1.0943028097566429e-07 0.0000000000000000e+00  -3.3704237180492501e-07 -1.3062088387002395e-07 0.0000000000000000e+00  -3.2393145694718544e-07 -1.3273735455900788e-07 0.0000000000000000e+00  -3.0012437483740552e-07 -1.2492784236736693e-07 0.0000000000000000e+00  -2.7246676306943983e-07 -1.1198652201398837e-07 0.0000000000000000e+00  -2.4278419002715398e-07 -9.6832816576909785e-08 0.0000000000000000e+00  -2.1584692669396611e-07 -8.0856716815802878e-08 0.0000000000000000e+00  -1.9281694142221432e-07 -6.4807069278647851e-08 0.0000000000000000e+00  -1.7450587959444155e-07 -4.9068649456927984e-08 0.0000000000000000e+00  -1.6135782484148393e-07 -3.3796682158379934e-08 0.0000000000000000e+00  -1.5350575307681588e-07 -1.9017266076065272e-08 0.0000000000000000e+00  -1.5099359212492639e-07 -4.6946074584963457e-09 0.0000000000000000e+00  -1.5380652331001862e-07 9.2077770482413624e-09 0.0000000000000000e+00  -1.6188981336918517e-07 2.2660787327918120e-08 0.0000000000000000e+00  -1.7512577301909225e-07 3.5505059808834291e-08 0.0000000000000000e+00  -1.9327068198650255e-07 4.7403406047394539e-08 0.0000000000000000e+00  -2.1586976300182324e-07 5.7830877491540929e-08 0.0000000000000000e+00  -2.4217491786024502e-07 6.6118603833711528e-08 0.0000000000000000e+00  -2.7109445779894646e-07 7.1551657846675040e-08 0.0000000000000000e+00  -3.0120855139035060e-07 7.3500146515621476e-08 0.0000000000000000e+00  -3.3084888251792496e-07 7.1546760975390098e-08 0.0000000000000000e+00  -3.5825328886255238e-07 6.5571057986628523e-08 0.0000000000000000e+00  -3.8171115557539700e-07 5.5768218702720209e-08 0.0000000000000000e+00  -3.9975901121987137e-07 4.2595717217242523e-08 0.0000000000000000e+00  -4.1118606708478751e-07 2.6683928462873191e-08 0.0000000000000000e+00  -4.1526046455532228e-07 8.7068461999817330e-09 0.0000000000000000e+00  -4.1131350653885780e-07 -1.0672862834981685e-08 0.0000000000000000e+00  -3.9948743177049636e-07 -3.0961139756189560e-08 0.0000000000000000e+00  -3.7900472991370259e-07 -5.1640677558974795e-08 0.0000000000000000e+00  -3.5150787291929525e-07 -7.2639569916796770e-08 0.0000000000000000e+00  -3.1402470256903738e-07 -9.3222537960609545e-08 0.0000000000000000e+00  -2.7328098118943043e-07 -1.1428256536928343e-07 0.0000000000000000e+00  -2.1639655271937052e-07 -1.3310988884654280e-07 0.0000000000000000e+00  -1.7084169026076667e-07 -1.5443657837839781e-07 0.0000000000000000e+00  -8.2644563622900485e-08 -1.6622277803912872e-07 0.0000000000000000e+00  -6.4053232290492734e-08 -1.9076885784672785e-07 0.0000000000000000e+00  1.0612839903521029e-07 -1.7549949229035798e-07 0.0000000000000000e+00  -2.4381728046475410e-08 -2.2148706269240975e-07 0.0000000000000000e+00  4.2778353643768305e-07 -1.0732950577581165e-07 0.0000000000000000e+00  -3.3041359344797986e-07 -2.7483324536160175e-07 0.0000000000000000e+00  1.0403452595437801e-06 1.7078591789771916e-07 0.0000000000000000e+00  -2.4733794767645218e-06 -5.7495753294089055e-07 0.0000000000000000e+00  2.5317456979327708e-06 1.4571486288409764e-06 0.0000000000000000e+00  0.0000000000000000e+00 0.0000000000000000e+00 0.0000000000000000e+00  0.0000000000000000e+00 0.0000000000000000e+00 0.0000000000000000e+00  -2.1765162413427411e-06 1.1736832248430335e-06 0.0000000000000000e+00  1.8266274059198583e-06 -1.2457110503283682e-07 0.0000000000000000e+00  -3.2725531999707768e-07 2.4012159189415160e-07 0.0000000000000000e+00  2.4181018094424754e-08 -3.3303393210016850e-08 0.0000000000000000e+00  -1.1710600950526158e-07 -7.2083067158410675e-08 0.0000000000000000e+00  -1.7081083364795954e-07 -1.2539900758509221e-07 0.0000000000000000e+00  -1.8031252019544567e-07 -1.4175864847737277e-07 0.0000000000000000e+00  -1.9792061712914841e-07 -1.4223756196933336e-07 0.0000000000000000e+00  -1.9935362836256777e-07 -1.3269222216207324e-07 0.0000000000000000e+00  -1.9583846843187596e-07 -1.1750724886596286e-07 0.0000000000000000e+00  -1.9008026353110188e-07 -9.9471468088654169e-08 0.0000000000000000e+00  -1.8342533895398772e-07 -8.0177505954695013e-08 0.0000000000000000e+00  -1.7767674304575323e-07 -6.0555589981714066e-08 0.0000000000000000e+00  -1.7366699854269719e-07 -4.1092983151154327e-08 0.0000000000000000e+00  -1.7199131663494612e-07 -2.2001948075792992e-08 0.0000000000000000e+00  -1.7305486433747317e-07 -3.3338333562770312e-09 0.0000000000000000e+00  -1.7712925527347689e-07 1.4917811970109274e-08 0.0000000000000000e+00  -1.8441666101986183e-07 3.2706472191039123e-08 0.0000000000000000e+00  -1.9503844336709870e-07 4.9821132298681687e-08 0.0000000000000000e+00  -2.0898222000652209e-07 6.5795441032822182e-08 0.0000000000000000e+00  -2.2601074060802392e-07 7.9873954694252751e-08 0.0000000000000000e+00  -2.4556457052647332e-07 9.1067385203030156e-08 0.0000000000000000e+00  -2.6670133240035503e-07 9.8302748224770571e-08 0.0000000000000000e+00  -2.8811926400981207e-07 1.0063529449896994e-07 0.0000000000000000e+00  -3.0826890676124084e-07 9.7457421466551877e-08 0.0000000000000000e+00  -3.2555731155308329e-07 8.8633912385586441e-08 0.0000000000000000e+00  -3.3853811994521340e-07 7.4523417876587094e-08 0.0000000000000000e+00  -3.4613366743160734e-07 5.5882032982283781e-08 0.0000000000000000e+00  -3.4762655357627891e-07 3.3705735294518520e-08 0.0000000000000000e+00  -3.4286236002992443e-07 9.0312458925752274e-09 0.0000000000000000e+00  -3.3176644997736108e-07 -1.7166524868003294e-08 0.0000000000000000e+00  -3.1509414345561690e-07 -4.4156874129334747e-08 0.0000000000000000e+00  -2.9259839677646617e-07 -7.1249209105380397e-08 0.0000000000000000e+00  -2.6651769494287640e-07 -9.8248859340372116e-08 0.0000000000000000e+00  -2.3428434494751656e-07 -1.2429485623966027e-07 0.0000000000000000e+00  -2.0335802071380227e-07 -1.5012904817307768e-07 0.0000000000000000e+00  -1.6109815630510406e-07 -1.7283524022335202e-07 0.0000000000000000e+00  -1.3616063647335624e-07 -1.9672231762120265e-07 0.0000000000000000e+00  -7.4531528224766059e-08 -2.0963727676443684e-07 0.0000000000000000e+00  -8.9977037429505394e-08 -2.3244468788102771e-07 0.0000000000000000e+00  3.8133813875020377e-08 -2.1491838391483527e-07 0.0000000000000000e+00  -1.3918759619722070e-07 -2.5179999371400784e-07 0.0000000000000000e+00  2.4959783492263544e-07 -1.4100650617318941e-07 0.0000000000000000e+00  -5.4741365261295509e-07 -2.8718534551673967e-07 0.0000000000000000e+00  7.3402491538649641e-07 1.0819620643497266e-07 0.0000000000000000e+00  -2.7010884861267024e-06 -5.2547061617962394e-07 0.0000000000000000e+00  2.1409746908103486e-06 1.2445059760378391e-06 0.0000000000000000e+00  0.0000000000000000e+00 0.0000000000000000e+00 0.0000000000000000e+00  0.0000000000000000e+00 0.0000000000000000e+00 0.0000000000000000e+00  -2.4272868500267459e-06 1.2098905881739787e-06 0.0000000000000000e+00  2.4424902297297552e-06 -1.5823597791281068e-07 0.0000000000000000e+00  -6.1998007058658356e-07 3.2014135960234325e-07 0.0000000000000000e+00  3.0109668802955559e-07 -2.1041013880719213e-08 0.0000000000000000e+00  -1.2300850192475389e-07 -3.7765405667520490e-09 0.0000000000000000e+00  -6.7059304337259664e-08 -9.1057628762876460e-08 0.0000000000000000e+00  -1.1094329815378083e-07 -1.1277476124836082e-07 0.0000000000000000e+00  -1.4025153136750067e-07 -1.2697585940220372e-07 0.0000000000000000e+00  -1.5317117738689744e-07 -1.2551223903670147e-07 0.0000000000000000e+00  -1.6467126528579809e-07 -1.1584226921910987e-07 0.0000000000000000e+00  -1.7051966844641567e-07 -1.0080736473533806e-07 0.0000000000000000e+00  -1.7393986949546481e-07 -8.2657723229994379e-08 0.0000000000000000e+00  -1.7626386108285787e-07 -6.2894047258884350e-08 0.0000000000000000e+00  -1.7829674735099725e-07 -4.2408732159500116e-08 0.0000000000000000e+00  -1.8081380437988837e-07 -2.1711471035854960e-08 0.0000000000000000e+00  -1.8429989046544588e-07 -1.0320548600809302e-09 0.0000000000000000e+00  -1.8914924437804955e-07 1.9540924231243695e-08 0.0000000000000000e+00  -1.9570290716201776e-07 3.9909751830836236e-08 0.0000000000000000e+00  -2.0424850756704722e-07 5.9799378100845440e-08 0.0000000000000000e+00  -2.1496625876837935e-07 7.8603538998300735e-08 0.0000000000000000e+00  -2.2780888836667640e-07 9.5307131741558558e-08 0.0000000000000000e+00  -2.4236302168091984e-07 1.0854556863397002e-07 0.0000000000000000e+00  -2.5775476590679230e-07 1.1682219606774889e-07 0.0000000000000000e+00  -2.7267582383060672e-07 1.1883369476317051e-07 0.0000000000000000e+00  -2.8554486800480599e-07 1.1379238057772985e-07 0.0000000000000000e+00  -2.9479691490032894e-07 1.0162399156462675e-07 0.0000000000000000e+00  -2.9914977007305340e-07 8.2975009171697171e-08 0.0000000000000000e+00  -2.9787021768044089e-07 5.9037245587479119e-08 0.0000000000000000e+00  -2.9073471517590885e-07 3.1284233391843512e-08 0.0000000000000000e+00  -2.7819310346297287e-07 1.1803345000385904e-09 0.0000000000000000e+00  -2.6076179538485933e-07 -2.9974093477633456e-08 0.0000000000000000e+00  -2.3979982678168639e-07 -6.1231663262373985e-08 0.0000000000000000e+00  -2.1546471684559244e-07 -9.1770322950266250e-08 0.0000000000000000e+00  -1.9052896120709634e-07 -1.2129616633733884e-07 0.0000000000000000e+00  -1.6244736567317409e-07 -1.4886208862118935e-07 0.0000000000000000e+00  -1.3944151763592090e-07 -1.7502456526771504e-07 0.0000000000000000e+00  -1.0802942425701548e-07 -1.9676204592854367e-07 0.0000000000000000e+00  -9.8791999741956695e-08 -2.1786150984206313e-07 0.0000000000000000e+00  -5.4185082369411931e-08 -2.2655424586807210e-07 0.0000000000000000e+00  -9.3780756525289798e-08 -2.4212856681332612e-07 0.0000000000000000e+00  1.5099709481136535e-08 -2.1827618813264309e-07 0.0000000000000000e+00  -1.9404675914610685e-07 -2.4318227887764465e-07 0.0000000000000000e+00  1.8615352622780132e-07 -1.3530610797119662e-07 0.0000000000000000e+00  -6.4327454831490234e-07 -2.6336386215289154e-07 0.0000000000000000e+00  6.6428497170324640e-07 8.5674237640026131e-08 0.0000000000000000e+00  -2.7653199881586807e-06 -4.7285790389867520e-07 0.0000000000000000e+00  2.1209759962373639e-06 1.0850220178361864e-06 0.0000000000000000e+00  0.0000000000000000e+00 0.0000000000000000e+00 0.0000000000000000e+00  0.0000000000000000e+00 0.0000000000000000e+00 0.0000000000000000e+00  -2.3767522876945489e-06 1.0960337619583362e-06 0.0000000000000000e+00  2.6874949327545919e-06 -1.4578531880993470e-07 0.0000000000000000e+00  -7.5792202557207265e-07 3.2037040896038819e-07 0.0000000000000000e+00  5.1559586120486668e-07 -8.3903363736547697e-09 0.0000000000000000e+00  -1.6554908548387815e-07 4.9795336650396735e-08 0.0000000000000000e+00  4.9616046748594173e-08 -5.7494491361835547e-08 0.0000000000000000e+00  -6.0697372097067213e-08 -7.4215278243074907e-08 0.0000000000000000e+00  -7.2002170640230508e-08 -1.0113902272762064e-07 0.0000000000000000e+00  -9.7763413366436885e-08 -1.0545275241472524e-07 0.0000000000000000e+00  -1.1905299338481215e-07 -1.0213785328878844e-07 0.0000000000000000e+00  -1.3392433287866393e-07 -9.1162845027611792e-08 0.0000000000000000e+00  -1.4655582943246196e-07 -7.5724007689143447e-08 0.0000000000000000e+00  -1.5654165965580960e-07 -5.7489999375023179e-08 0.0000000000000000e+00  -1.6496935657743903e-07 -3.7680376831230877e-08 0.0000000000000000e+00  -1.7248454694503553e-07 -1.7055121630050527e-08 0.0000000000000000e+00  -1.7955496411657865e-07 4.0060216664341563e-09 0.0000000000000000e+00  -1.8663849657457297e-07 2.5347228400905093e-08 0.0000000000000000e+00  -1.9416586069127888e-07 4.6867835823430067e-08 0.0000000000000000e+00  -2.0258036147062373e-07 6.8286270626720611e-08 0.0000000000000000e+00  -2.1226558463621352e-07 8.8896901359611004e-08 0.0000000000000000e+00  -2.2337798768843843e-07 1.0741409827457757e-07 0.0000000000000000e+00  -2.3563339869804672e-07 1.2202140783306895e-07 0.0000000000000000e+00  -2.4814708468995775e-07 1.3068387130734150e-07 0.0000000000000000e+00  -2.5945740663990849e-07 1.3164965751060757e-07 0.0000000000000000e+00  -2.6777139686049956e-07 1.2394798200063496e-07 0.0000000000000000e+00  -2.7139889344647463e-07 1.0767123975226975e-07 0.0000000000000000e+00  -2.6914727376556014e-07 8.3936656002582142e-08 0.0000000000000000e+00  -2.6064340499095448e-07 5.4566893309661538e-08 0.0000000000000000e+00  -2.4623695628334484e-07 2.1657805561846187e-08 0.0000000000000000e+00  -2.2706928753653848e-07 -1.2839333883325805e-08 0.0000000000000000e+00  -2.0430806733252521e-07 -4.7323990791211376e-08 0.0000000000000000e+00  -1.7990341196370028e-07 -8.0720031507586986e-08 0.0000000000000000e+00  -1.5436966384923642e-07 -1.1219056203771428e-07 0.0000000000000000e+00  -1.3085034486337625e-07 -1.4147077