<?xml version="1.0"?>
<VTKFile type="UnstructuredGrid"  version="0.1"  >
<UnstructuredGrid>
<Piece  NumberOfPoints="1617" NumberOfCells="3072">
<Points>
<DataArray  type="Float64"  NumberOfComponents="3"  format="ascii">0 0 0  0.03125 0 0  0.0625 0 0  0.09375 0 0  0.125 0 0  0.15625 0 0  0.1875 0 0  0.21875 0 0  0.25 0 0  0.28125 0 0  0.3125 0 0  0.34375 0 0  0.375 0 0  0.40625 0 0  0.4375 0 0  0.46875 0 0  0.5 0 0  0.53125 0 0  0.5625 0 0  0.59375 0 0  0.625 0 0  0.65625 0 0  0.6875 0 0  0.71875 0 0  0.75 0 0  0.78125 0 0  0.8125 0 0  0.84375 0 0  0.875 0 0  0.90625 0 0  0.9375 0 0  0.96875 0 0  1 0 0  1.03125 0 0  1.0625 0 0  1.09375 0 0  1.125 0 0  1.15625 0 0  1.1875 0 0  1.21875 0 0  1.25 0 0  1.28125 0 0  1.3125 0 0  1.34375 0 0  1.375 0 0  1.40625 0 0  1.4375 0 0  1.46875 0 0  1.5 0 0  0 0.03125 0  0.03125 0.03125 0  0.0625 0.03125 0  0.09375 0.03125 0  0.125 0.03125 0  0.15625 0.03125 0  0.1875 0.03125 0  0.21875 0.03125 0  0.25 0.03125 0  0.28125 0.03125 0  0.3125 0.03125 0  0.34375 0.03125 0  0.375 0.03125 0  0.40625 0.03125 0  0.4375 0.03125 0  0.46875 0.03125 0  0.5 0.03125 0  0.53125 0.03125 0  0.5625 0.03125 0  0.59375 0.03125 0  0.625 0.03125 0  0.65625 0.03125 0  0.6875 0.03125 0  0.71875 0.03125 0  0.75 0.03125 0  0.78125 0.03125 0  0.8125 0.03125 0  0.84375 0.03125 0  0.875 0.03125 0  0.90625 0.03125 0  0.9375 0.03125 0  0.96875 0.03125 0  1 0.03125 0  1.03125 0.03125 0  1.0625 0.03125 0  1.09375 0.03125 0  1.125 0.03125 0  1.15625 0.03125 0  1.1875 0.03125 0  1.21875 0.03125 0  1.25 0.03125 0  1.28125 0.03125 0  1.3125 0.03125 0  1.34375 0.03125 0  1.375 0.03125 0  1.40625 0.03125 0  1.4375 0.03125 0  1.46875 0.03125 0  1.5 0.03125 0  0 0.0625 0  0.03125 0.0625 0  0.0625 0.0625 0  0.09375 0.0625 0  0.125 0.0625 0  0.15625 0.0625 0  0.1875 0.0625 0  0.21875 0.0625 0  0.25 0.0625 0  0.28125 0.0625 0  0.3125 0.0625 0  0.34375 0.0625 0  0.375 0.0625 0  0.40625 0.0625 0  0.4375 0.0625 0  0.46875 0.0625 0  0.5 0.0625 0  0.53125 0.0625 0  0.5625 0.0625 0  0.59375 0.0625 0  0.625 0.0625 0  0.65625 0.0625 0  0.6875 0.0625 0  0.71875 0.0625 0  0.75 0.0625 0  0.78125 0.0625 0  0.8125 0.0625 0  0.84375 0.0625 0  0.875 0.0625 0  0.90625 0.0625 0  0.9375 0.0625 0  0.96875 0.0625 0  1 0.0625 0  1.03125 0.0625 0  1.0625 0.0625 0  1.09375 0.0625 0  1.125 0.0625 0  1.15625 0.0625 0  1.1875 0.0625 0  1.21875 0.0625 0  1.25 0.0625 0  1.28125 0.0625 0  1.3125 0.0625 0  1.34375 0.0625 0  1.375 0.0625 0  1.40625 0.0625 0  1.4375 0.0625 0  1.46875 0.0625 0  1.5 0.0625 0  0 0.09375 0  0.03125 0.09375 0  0.0625 0.09375 0  0.09375 0.09375 0  0.125 0.09375 0  0.15625 0.09375 0  0.1875 0.09375 0  0.21875 0.09375 0  0.25 0.09375 0  0.28125 0.09375 0  0.3125 0.09375 0  0.34375 0.09375 0  0.375 0.09375 0  0.40625 0.09375 0  0.4375 0.09375 0  0.46875 0.09375 0  0.5 0.09375 0  0.53125 0.09375 0  0.5625 0.09375 0  0.59375 0.09375 0  0.625 0.09375 0  0.65625 0.09375 0  0.6875 0.09375 0  0.71875 0.09375 0  0.75 0.09375 0  0.78125 0.09375 0  0.8125 0.09375 0  0.84375 0.09375 0  0.875 0.09375 0  0.90625 0.09375 0  0.9375 0.09375 0  0.96875 0.09375 0  1 0.09375 0  1.03125 0.09375 0  1.0625 0.09375 0  1.09375 0.09375 0  1.125 0.09375 0  1.15625 0.09375 0  1.1875 0.09375 0  1.21875 0.09375 0  1.25 0.09375 0  1.28125 0.09375 0  1.3125 0.09375 0  1.34375 0.09375 0  1.375 0.09375 0  1.40625 0.09375 0  1.4375 0.09375 0  1.46875 0.09375 0  1.5 0.09375 0  0 0.125 0  0.03125 0.125 0  0.0625 0.125 0  0.09375 0.125 0  0.125 0.125 0  0.15625 0.125 0  0.1875 0.125 0  0.21875 0.125 0  0.25 0.125 0  0.28125 0.125 0  0.3125 0.125 0  0.34375 0.125 0  0.375 0.125 0  0.40625 0.125 0  0.4375 0.125 0  0.46875 0.125 0  0.5 0.125 0  0.53125 0.125 0  0.5625 0.125 0  0.59375 0.125 0  0.625 0.125 0  0.65625 0.125 0  0.6875 0.125 0  0.71875 0.125 0  0.75 0.125 0  0.78125 0.125 0  0.8125 0.125 0  0.84375 0.125 0  0.875 0.125 0  0.90625 0.125 0  0.9375 0.125 0  0.96875 0.125 0  1 0.125 0  1.03125 0.125 0  1.0625 0.125 0  1.09375 0.125 0  1.125 0.125 0  1.15625 0.125 0  1.1875 0.125 0  1.21875 0.125 0  1.25 0.125 0  1.28125 0.125 0  1.3125 0.125 0  1.34375 0.125 0  1.375 0.125 0  1.40625 0.125 0  1.4375 0.125 0  1.46875 0.125 0  1.5 0.125 0  0 0.15625 0  0.03125 0.15625 0  0.0625 0.15625 0  0.09375 0.15625 0  0.125 0.15625 0  0.15625 0.15625 0  0.1875 0.15625 0  0.21875 0.15625 0  0.25 0.15625 0  0.28125 0.15625 0  0.3125 0.15625 0  0.34375 0.15625 0  0.375 0.15625 0  0.40625 0.15625 0  0.4375 0.15625 0  0.46875 0.15625 0  0.5 0.15625 0  0.53125 0.15625 0  0.5625 0.15625 0  0.59375 0.15625 0  0.625 0.15625 0  0.65625 0.15625 0  0.6875 0.15625 0  0.71875 0.15625 0  0.75 0.15625 0  0.78125 0.15625 0  0.8125 0.15625 0  0.84375 0.15625 0  0.875 0.15625 0  0.90625 0.15625 0  0.9375 0.15625 0  0.96875 0.15625 0  1 0.15625 0  1.03125 0.15625 0  1.0625 0.15625 0  1.09375 0.15625 0  1.125 0.15625 0  1.15625 0.15625 0  1.1875 0.15625 0  1.21875 0.15625 0  1.25 0.15625 0  1.28125 0.15625 0  1.3125 0.15625 0  1.34375 0.15625 0  1.375 0.15625 0  1.40625 0.15625 0  1.4375 0.15625 0  1.46875 0.15625 0  1.5 0.15625 0  0 0.1875 0  0.03125 0.1875 0  0.0625 0.1875 0  0.09375 0.1875 0  0.125 0.1875 0  0.15625 0.1875 0  0.1875 0.1875 0  0.21875 0.1875 0  0.25 0.1875 0  0.28125 0.1875 0  0.3125 0.1875 0  0.34375 0.1875 0  0.375 0.1875 0  0.40625 0.1875 0  0.4375 0.1875 0  0.46875 0.1875 0  0.5 0.1875 0  0.53125 0.1875 0  0.5625 0.1875 0  0.59375 0.1875 0  0.625 0.1875 0  0.65625 0.1875 0  0.6875 0.1875 0  0.71875 0.1875 0  0.75 0.1875 0  0.78125 0.1875 0  0.8125 0.1875 0  0.84375 0.1875 0  0.875 0.1875 0  0.90625 0.1875 0  0.9375 0.1875 0  0.96875 0.1875 0  1 0.1875 0  1.03125 0.1875 0  1.0625 0.1875 0  1.09375 0.1875 0  1.125 0.1875 0  1.15625 0.1875 0  1.1875 0.1875 0  1.21875 0.1875 0  1.25 0.1875 0  1.28125 0.1875 0  1.3125 0.1875 0  1.34375 0.1875 0  1.375 0.1875 0  1.40625 0.1875 0  1.4375 0.1875 0  1.46875 0.1875 0  1.5 0.1875 0  0 0.21875 0  0.03125 0.21875 0  0.0625 0.21875 0  0.09375 0.21875 0  0.125 0.21875 0  0.15625 0.21875 0  0.1875 0.21875 0  0.21875 0.21875 0  0.25 0.21875 0  0.28125 0.21875 0  0.3125 0.21875 0  0.34375 0.21875 0  0.375 0.21875 0  0.40625 0.21875 0  0.4375 0.21875 0  0.46875 0.21875 0  0.5 0.21875 0  0.53125 0.21875 0  0.5625 0.21875 0  0.59375 0.21875 0  0.625 0.21875 0  0.65625 0.21875 0  0.6875 0.21875 0  0.71875 0.21875 0  0.75 0.21875 0  0.78125 0.21875 0  0.8125 0.21875 0  0.84375 0.21875 0  0.875 0.21875 0  0.90625 0.21875 0  0.9375 0.21875 0  0.96875 0.21875 0  1 0.21875 0  1.03125 0.21875 0  1.0625 0.21875 0  1.09375 0.21875 0  1.125 0.21875 0  1.15625 0.21875 0  1.1875 0.21875 0  1.21875 0.21875 0  1.25 0.21875 0  1.28125 0.21875 0  1.3125 0.21875 0  1.34375 0.21875 0  1.375 0.21875 0  1.40625 0.21875 0  1.4375 0.21875 0  1.46875 0.21875 0  1.5 0.21875 0  0 0.25 0  0.03125 0.25 0  0.0625 0.25 0  0.09375 0.25 0  0.125 0.25 0  0.15625 0.25 0  0.1875 0.25 0  0.21875 0.25 0  0.25 0.25 0  0.28125 0.25 0  0.3125 0.25 0  0.34375 0.25 0  0.375 0.25 0  0.40625 0.25 0  0.4375 0.25 0  0.46875 0.25 0  0.5 0.25 0  0.53125 0.25 0  0.5625 0.25 0  0.59375 0.25 0  0.625 0.25 0  0.65625 0.25 0  0.6875 0.25 0  0.71875 0.25 0  0.75 0.25 0  0.78125 0.25 0  0.8125 0.25 0  0.84375 0.25 0  0.875 0.25 0  0.90625 0.25 0  0.9375 0.25 0  0.96875 0.25 0  1 0.25 0  1.03125 0.25 0  1.0625 0.25 0  1.09375 0.25 0  1.125 0.25 0  1.15625 0.25 0  1.1875 0.25 0  1.21875 0.25 0  1.25 0.25 0  1.28125 0.25 0  1.3125 0.25 0  1.34375 0.25 0  1.375 0.25 0  1.40625 0.25 0  1.4375 0.25 0  1.46875 0.25 0  1.5 0.25 0  0 0.28125 0  0.03125 0.28125 0  0.0625 0.28125 0  0.09375 0.28125 0  0.125 0.28125 0  0.15625 0.28125 0  0.1875 0.28125 0  0.21875 0.28125 0  0.25 0.28125 0  0.28125 0.28125 0  0.3125 0.28125 0  0.34375 0.28125 0  0.375 0.28125 0  0.40625 0.28125 0  0.4375 0.28125 0  0.46875 0.28125 0  0.5 0.28125 0  0.53125 0.28125 0  0.5625 0.28125 0  0.59375 0.28125 0  0.625 0.28125 0  0.65625 0.28125 0  0.6875 0.28125 0  0.71875 0.28125 0  0.75 0.28125 0  0.78125 0.28125 0  0.8125 0.28125 0  0.84375 0.28125 0  0.875 0.28125 0  0.90625 0.28125 0  0.9375 0.28125 0  0.96875 0.28125 0  1 0.28125 0  1.03125 0.28125 0  1.0625 0.28125 0  1.09375 0.28125 0  1.125 0.28125 0  1.15625 0.28125 0  1.1875 0.28125 0  1.21875 0.28125 0  1.25 0.28125 0  1.28125 0.28125 0  1.3125 0.28125 0  1.34375 0.28125 0  1.375 0.28125 0  1.40625 0.28125 0  1.4375 0.28125 0  1.46875 0.28125 0  1.5 0.28125 0  0 0.3125 0  0.03125 0.3125 0  0.0625 0.3125 0  0.09375 0.3125 0  0.125 0.3125 0  0.15625 0.3125 0  0.1875 0.3125 0  0.21875 0.3125 0  0.25 0.3125 0  0.28125 0.3125 0  0.3125 0.3125 0  0.34375 0.3125 0  0.375 0.3125 0  0.40625 0.3125 0  0.4375 0.3125 0  0.46875 0.3125 0  0.5 0.3125 0  0.53125 0.3125 0  0.5625 0.3125 0  0.59375 0.3125 0  0.625 0.3125 0  0.65625 0.3125 0  0.6875 0.3125 0  0.71875 0.3125 0  0.75 0.3125 0  0.78125 0.3125 0  0.8125 0.3125 0  0.84375 0.3125 0  0.875 0.3125 0  0.90625 0.3125 0  0.9375 0.3125 0  0.96875 0.3125 0  1 0.3125 0  1.03125 0.3125 0  1.0625 0.3125 0  1.09375 0.3125 0  1.125 0.3125 0  1.15625 0.3125 0  1.1875 0.3125 0  1.21875 0.3125 0  1.25 0.3125 0  1.28125 0.3125 0  1.3125 0.3125 0  1.34375 0.3125 0  1.375 0.3125 0  1.40625 0.3125 0  1.4375 0.3125 0  1.46875 0.3125 0  1.5 0.3125 0  0 0.34375 0  0.03125 0.34375 0  0.0625 0.34375 0  0.09375 0.34375 0  0.125 0.34375 0  0.15625 0.34375 0  0.1875 0.34375 0  0.21875 0.34375 0  0.25 0.34375 0  0.28125 0.34375 0  0.3125 0.34375 0  0.34375 0.34375 0  0.375 0.34375 0  0.40625 0.34375 0  0.4375 0.34375 0  0.46875 0.34375 0  0.5 0.34375 0  0.53125 0.34375 0  0.5625 0.34375 0  0.59375 0.34375 0  0.625 0.34375 0  0.65625 0.34375 0  0.6875 0.34375 0  0.71875 0.34375 0  0.75 0.34375 0  0.78125 0.34375 0  0.8125 0.34375 0  0.84375 0.34375 0  0.875 0.34375 0  0.90625 0.34375 0  0.9375 0.34375 0  0.96875 0.34375 0  1 0.34375 0  1.03125 0.34375 0  1.0625 0.34375 0  1.09375 0.34375 0  1.125 0.34375 0  1.15625 0.34375 0  1.1875 0.34375 0  1.21875 0.34375 0  1.25 0.34375 0  1.28125 0.34375 0  1.3125 0.34375 0  1.34375 0.34375 0  1.375 0.34375 0  1
[...]
<PointData  Vectors="f_17"> 
<DataArray  type="Float64"  Name="f_17"  NumberOfComponents="3" format="ascii">0.0000000000000000e+00 0.0000000000000000e+00 0.0000000000000000e+00  0.0000000000000000e+00 0.0000000000000000e+00 0.0000000000000000e+00  0.0000000000000000e+00 0.0000000000000000e+00 0.0000000000000000e+00  0.0000000000000000e+00 0.0000000000000000e+00 0.0000000000000000e+00  0.0000000000000000e+00 0.0000000000000000e+00 0.0000000000000000e+00  0.0000000000000000e+00 0.0000000000000000e+00 0.0000000000000000e+00  0.0000000000000000e+00 0.0000000000000000e+00 0.0000000000000000e+00  0.0000000000000000e+00 0.0000000000000000e+00 0.0000000000000000e+00  0.0000000000000000e+00 0.0000000000000000e+00 0.0000000000000000e+00  0.0000000000000000e+00 0.0000000000000000e+00 0.0000000000000000e+00  0.0000000000000000e+00 0.0000000000000000e+00 0.0000000000000000e+00  0.0000000000000000e+00 0.0000000000000000e+00 0.0000000000000000e+00  0.0000000000000000e+00 0.0000000000000000e+00 0.0000000000000000e+00  0.0000000000000000e+00 0.0000000000000000e+00 0.0000000000000000e+00  0.0000000000000000e+00 0.0000000000000000e+00 0.0000000000000000e+00  0.0000000000000000e+00 0.0000000000000000e+00 0.0000000000000000e+00  0.0000000000000000e+00 0.0000000000000000e+00 0.0000000000000000e+00  0.0000000000000000e+00 0.0000000000000000e+00 0.0000000000000000e+00  0.0000000000000000e+00 0.0000000000000000e+00 0.0000000000000000e+00  0.0000000000000000e+00 0.0000000000000000e+00 0.0000000000000000e+00  0.0000000000000000e+00 0.0000000000000000e+00 0.0000000000000000e+00  0.0000000000000000e+00 0.0000000000000000e+00 0.0000000000000000e+00  0.0000000000000000e+00 0.0000000000000000e+00 0.0000000000000000e+00  0.0000000000000000e+00 0.0000000000000000e+00 0.0000000000000000e+00  0.0000000000000000e+00 0.0000000000000000e+00 0.0000000000000000e+00  0.0000000000000000e+00 0.0000000000000000e+00 0.0000000000000000e+00  0.0000000000000000e+00 0.0000000000000000e+00 0.0000000000000000e+00  0.0000000000000000e+00 0.0000000000000000e+00 0.0000000000000000e+00  0.0000000000000000e+00 0.0000000000000000e+00 0.0000000000000000e+00  0.0000000000000000e+00 0.0000000000000000e+00 0.0000000000000000e+00  0.0000000000000000e+00 0.0000000000000000e+00 0.0000000000000000e+00  0.0000000000000000e+00 0.0000000000000000e+00 0.0000000000000000e+00  0.0000000000000000e+00 0.0000000000000000e+00 0.0000000000000000e+00  0.0000000000000000e+00 0.0000000000000000e+00 0.0000000000000000e+00  0.0000000000000000e+00 0.0000000000000000e+00 0.0000000000000000e+00  0.0000000000000000e+00 0.0000000000000000e+00 0.0000000000000000e+00  0.0000000000000000e+00 0.0000000000000000e+00 0.0000000000000000e+00  0.0000000000000000e+00 0.0000000000000000e+00 0.0000000000000000e+00  0.0000000000000000e+00 0.0000000000000000e+00 0.0000000000000000e+00  0.0000000000000000e+00 0.0000000000000000e+00 0.0000000000000000e+00  0.0000000000000000e+00 0.0000000000000000e+00 0.0000000000000000e+00  0.0000000000000000e+00 0.0000000000000000e+00 0.0000000000000000e+00  0.0000000000000000e+00 0.0000000000000000e+00 0.0000000000000000e+00  0.0000000000000000e+00 0.0000000000000000e+00 0.0000000000000000e+00  0.0000000000000000e+00 0.0000000000000000e+00 0.0000000000000000e+00  0.0000000000000000e+00 0.0000000000000000e+00 0.0000000000000000e+00  0.0000000000000000e+00 0.0000000000000000e+00 0.0000000000000000e+00  0.0000000000000000e+00 0.0000000000000000e+00 0.0000000000000000e+00  0.0000000000000000e+00 0.0000000000000000e+00 0.0000000000000000e+00  0.0000000000000000e+00 0.0000000000000000e+00 0.0000000000000000e+00  9.7279422049661809e-08 -6.0810326199864972e-08 0.0000000000000000e+00  -1.7869311903118313e-07 1.1145262416054530e-07 0.0000000000000000e+00  -8.5976249774347559e-08 1.1789169488434764e-08 0.0000000000000000e+00  -2.8712598687829397e-07 -2.1495942329833558e-08 0.0000000000000000e+00  -2.8984767701209537e-07 -4.9349254553305065e-08 0.0000000000000000e+00  -2.9721863341401862e-07 -5.6988232461942502e-08 0.0000000000000000e+00  -3.0702584877693371e-07 -5.2527475479821606e-08 0.0000000000000000e+00  -3.0434740656672143e-07 -4.5286169889164753e-08 0.0000000000000000e+00  -3.0118701297246706e-07 -3.6641189977003417e-08 0.0000000000000000e+00  -2.9799318298500899e-07 -2.7757255991216593e-08 0.0000000000000000e+00  -2.9632101682734152e-07 -1.9089144796707252e-08 0.0000000000000000e+00  -2.9764236079813018e-07 -1.0751580231544792e-08 0.0000000000000000e+00  -3.0259227938609738e-07 -2.7985224375766926e-09 0.0000000000000000e+00  -3.1166353203603281e-07 4.7840117058447486e-09 0.0000000000000000e+00  -3.2516788353760291e-07 1.2044572751296460e-08 0.0000000000000000e+00  -3.4330316720343017e-07 1.9037747675851119e-08 0.0000000000000000e+00  -3.6619882798280742e-07 2.5793317484407746e-08 0.0000000000000000e+00  -3.9390361092702750e-07 3.2280562638434794e-08 0.0000000000000000e+00  -4.2634481595332334e-07 3.8375270180828251e-08 0.0000000000000000e+00  -4.6325695580396884e-07 4.3839788386483921e-08 0.0000000000000000e+00  -5.0409546035060156e-07 4.8327134384850567e-08 0.0000000000000000e+00  -5.4796153787623929e-07 5.1416093358424045e-08 0.0000000000000000e+00  -5.9356346166560859e-07 5.2674995222173515e-08 0.0000000000000000e+00  -6.3924218844869865e-07 5.1740814239246236e-08 0.0000000000000000e+00  -6.8305877080385609e-07 4.8392710636561316e-08 0.0000000000000000e+00  -7.2295253305485171e-07 4.2598250536983355e-08 0.0000000000000000e+00  -7.5689677875156203e-07 3.4521540702665957e-08 0.0000000000000000e+00  -7.8310476351014167e-07 2.4488028722188592e-08 0.0000000000000000e+00  -8.0006849986720625e-07 1.2931851636652775e-08 0.0000000000000000e+00  -8.0679655292431828e-07 3.0980253691039888e-10 0.0000000000000000e+00  -8.0245659584847792e-07 -1.2919365242543830e-08 0.0000000000000000e+00  -7.8708238374954559e-07 -2.6430102192105979e-08 0.0000000000000000e+00  -7.5995357527826236e-07 -3.9832842539221002e-08 0.0000000000000000e+00  -7.2274246968803066e-07 -5.3158361006274666e-08 0.0000000000000000e+00  -6.7278882751822763e-07 -6.5737330753826574e-08 0.0000000000000000e+00  -6.1684682519795064e-07 -7.8617842027694290e-08 0.0000000000000000e+00  -5.4262126699997836e-07 -8.9097250353957268e-08 0.0000000000000000e+00  -4.7738055965504686e-07 -1.0256676912329788e-07 0.0000000000000000e+00  -3.6771359442132469e-07 -1.0652628991665964e-07 0.0000000000000000e+00  -3.2557913367654969e-07 -1.2637977362368195e-07 0.0000000000000000e+00  -1.2770272364426691e-07 -1.0562458239178831e-07 0.0000000000000000e+00  -2.2945172031232265e-07 -1.5880430540758274e-07 0.0000000000000000e+00  2.7274784888814822e-07 -4.0325783144827388e-08 0.0000000000000000e+00  -4.5156644102905023e-07 -2.4775346602457222e-07 0.0000000000000000e+00  1.1343219903924429e-06 2.2864418298627187e-07 0.0000000000000000e+00  -2.3880334755467033e-06 -7.6387655912835651e-07 0.0000000000000000e+00  2.9304829537413987e-06 1.2963003725408929e-06 0.0000000000000000e+00  0.0000000000000000e+00 0.0000000000000000e+00 0.0000000000000000e+00  0.0000000000000000e+00 0.0000000000000000e+00 0.0000000000000000e+00  -1.3500481496430211e-06 6.0298504502593345e-07 0.0000000000000000e+00  7.2434627823317636e-07 -1.9167620898829761e-08 0.0000000000000000e+00  -1.3093334709664232e-07 1.4537608812625168e-07 0.0000000000000000e+00  -2.9271674098509992e-07 3.2014715041257530e-08 0.0000000000000000e+00  -3.1944920915592035e-07 -1.9432895093025002e-08 0.0000000000000000e+00  -3.9542894928404153e-07 -4.5089683483205910e-08 0.0000000000000000e+00  -4.1268301523176287e-07 -5.4480466350863505e-08 0.0000000000000000e+00  -4.1925591048292530e-07 -5.4486524405053846e-08 0.0000000000000000e+00  -4.2050106953019683e-07 -4.8664403980572023e-08 0.0000000000000000e+00  -4.1773532649056534e-07 -3.9492706860927048e-08 0.0000000000000000e+00  -4.1574028591560420e-07 -2.8301809145742642e-08 0.0000000000000000e+00  -4.1594416826346545e-07 -1.5958980349353271e-08 0.0000000000000000e+00  -4.1951210771280866e-07 -3.0277756841458287e-09 0.0000000000000000e+00  -4.2723684608328298e-07 1.0156509199981088e-08 0.0000000000000000e+00  -4.3955035382798926e-07 2.3407241194427433e-08 0.0000000000000000e+00  -4.5673034221350298e-07 3.6618680765413788e-08 0.0000000000000000e+00  -4.7892635460604728e-07 4.9693553171515266e-08 0.0000000000000000e+00  -5.0617544378970288e-07 6.2462014020940221e-08 0.0000000000000000e+00  -5.3837180771608135e-07 7.4603946818763938e-08 0.0000000000000000e+00  -5.7519154208850503e-07 8.5594633881224423e-08 0.0000000000000000e+00  -6.1599374037290272e-07 9.4698198644274802e-08 0.0000000000000000e+00  -6.5972876140410698e-07 1.0102714495153911e-07 0.0000000000000000e+00  -7.0489030177850850e-07 1.0366709375999763e-07 0.0000000000000000e+00  -7.4955104058614897e-07 1.0184056851985312e-07 0.0000000000000000e+00  -7.9148194911018164e-07 9.5064525036972613e-08 0.0000000000000000e+00  -8.2836155894573979e-07 8.3253097870373647e-08 0.0000000000000000e+00  -8.5798100965568293e-07 6.6737682521435358e-08 0.0000000000000000e+00  -8.7849279262145298e-07 4.6197516463672068e-08 0.0000000000000000e+00  -8.8845291611719011e-07 2.2541635584213867e-08 0.0000000000000000e+00  -8.8706387447616357e-07 -3.2537350537612598e-09 0.0000000000000000e+00  -8.7375503200247105e-07 -3.0230314240078665e-08 0.0000000000000000e+00  -8.4891581859940808e-07 -5.7626241783860697e-08 0.0000000000000000e+00  -8.1213910515392103e-07 -8.4694311108887389e-08 0.0000000000000000e+00  -7.6554830731765527e-07 -1.1116976929193936e-07 0.0000000000000000e+00  -7.0673308024557516e-07 -1.3615407740911274e-07 0.0000000000000000e+00  -6.4309024818443806e-07 -1.6039633875693390e-07 0.0000000000000000e+00  -5.6243874217011136e-07 -1.8105997313684973e-07 0.0000000000000000e+00  -4.9312745476098663e-07 -2.0278002896393929e-07 0.0000000000000000e+00  -3.8178362549468560e-07 -2.1349428693363640e-07 0.0000000000000000e+00  -3.4178618836995629e-07 -2.3565749939558505e-07 0.0000000000000000e+00  -1.5112294583360039e-07 -2.1714731741523142e-07 0.0000000000000000e+00  -2.6410516965566385e-07 -2.6013061808794812e-07 0.0000000000000000e+00  2.1133402810442619e-07 -1.4490066367155004e-07 0.0000000000000000e+00  -5.2824016464717011e-07 -3.1702208550908396e-07 0.0000000000000000e+00  9.4896328032033943e-07 1.2135538440404711e-07 0.0000000000000000e+00  -2.4208245597767093e-06 -6.5482360724882508e-07 0.0000000000000000e+00  2.7855793185079294e-06 1.2970952518337833e-06 0.0000000000000000e+00  0.0000000000000000e+00 0.0000000000000000e+00 0.0000000000000000e+00  0.0000000000000000e+00 0.0000000000000000e+00 0.0000000000000000e+00  -2.4666956250800050e-06 1.0808156185163271e-06 0.0000000000000000e+00  1.6549710731333732e-06 -1.1336067854214532e-07 0.0000000000000000e+00  -4.1704427560826005e-07 3.1144434072613319e-07 0.0000000000000000e+00  -1.5295934091877573e-08 6.4845446617655816e-08 0.0000000000000000e+00  -1.6978478451883909e-07 3.8157396805628252e-08 0.0000000000000000e+00  -2.4225505951134518e-07 -1.5313545195201642e-08 0.0000000000000000e+00  -2.7452190292480652e-07 -3.7242279391477363e-08 0.0000000000000000e+00  -3.1695577731667156e-07 -4.5543422593827286e-08 0.0000000000000000e+00  -3.4336465931580325e-07 -4.3982764032357401e-08 0.0000000000000000e+00  -3.6407200062952940e-07 -3.5989644624388847e-08 0.0000000000000000e+00  -3.8143160598350615e-07 -2.3961931144360766e-08 0.0000000000000000e+00  -3.9677196354425202e-07 -9.4433721463206751e-09 0.0000000000000000e+00  -4.1205478347228940e-07 6.5243120207560457e-09 0.0000000000000000e+00  -4.2833206812362817e-07 2.3279316352155147e-08 0.0000000000000000e+00  -4.4641572732437450e-07 4.0420513921981296e-08 0.0000000000000000e+00  -4.6689222106773360e-07 5.7708775432310722e-08 0.0000000000000000e+00  -4.9016287983255525e-07 7.4959266920370292e-08 0.0000000000000000e+00  -5.1649716056309058e-07 9.1916172572161997e-08 0.0000000000000000e+00  -5.4600852129589194e-07 1.0812519271478666e-07 0.0000000000000000e+00  -5.7858445723905483e-07 1.2283343950175111e-07 0.0000000000000000e+00  -6.1377639598003023e-07 1.3496085590460291e-07 0.0000000000000000e+00  -6.5068829101657353e-07 1.4318025424529096e-07 0.0000000000000000e+00  -6.8791634691064958e-07 1.4611119745432884e-07 0.0000000000000000e+00  -7.2359629875198173e-07 1.4258600488552074e-07 0.0000000000000000e+00  -7.5556459446358146e-07 1.3190815885769498e-07 0.0000000000000000e+00  -7.8163118085992297e-07 1.1401681137082291e-07 0.0000000000000000e+00  -7.9984242175214841e-07 8.9507638003460031e-08 0.0000000000000000e+00  -8.0876371137020630e-07 5.9506194279518629e-08 0.0000000000000000e+00  -8.0750648732425811e-07 2.5460006435828560e-08 0.0000000000000000e+00  -7.9593877185251167e-07 -1.1116903736659499e-08 0.0000000000000000e+00  -7.7418443733380395e-07 -4.8795696212524714e-08 0.0000000000000000e+00  -7.4334432231775233e-07 -8.6448506968497171e-08 0.0000000000000000e+00  -7.0362425232170662e-07 -1.2305970810553138e-07 0.0000000000000000e+00  -6.5779940894518675e-07 -1.5818177171338433e-07 0.0000000000000000e+00  -6.0388011299203071e-07 -1.9076428802629469e-07 0.0000000000000000e+00  -5.4996298162104201e-07 -2.2141442743985348e-07 0.0000000000000000e+00  -4.8399822650105182e-07 -2.4713662056756220e-07 0.0000000000000000e+00  -4.3532397969572310e-07 -2.7224150203987731e-07 0.0000000000000000e+00  -3.5019770630073708e-07 -2.8470822976527086e-07 0.0000000000000000e+00  -3.4306570371966777e-07 -3.0579074539373182e-07 0.0000000000000000e+00  -1.9188620150013147e-07 -2.8598825971493733e-07 0.0000000000000000e+00  -3.4703789394507595e-07 -3.2145067032952150e-07 0.0000000000000000e+00  7.2029617063780301e-08 -2.1186342020778754e-07 0.0000000000000000e+00  -6.9766031069766369e-07 -3.6524603324265729e-07 0.0000000000000000e+00  6.9581450010368260e-07 2.0630878034373267e-08 0.0000000000000000e+00  -2.6055468444089119e-06 -6.4349509522833177e-07 0.0000000000000000e+00  2.4170996576727496e-06 1.0612908936090468e-06 0.0000000000000000e+00  0.0000000000000000e+00 0.0000000000000000e+00 0.0000000000000000e+00  0.0000000000000000e+00 0.0000000000000000e+00 0.0000000000000000e+00  -2.7341159510520533e-06 1.1350092548745046e-06 0.0000000000000000e+00  2.2566021499125147e-06 -1.3894053740016421e-07 0.0000000000000000e+00  -7.3112173826845815e-07 3.9514134317839486e-07 0.0000000000000000e+00  2.4900444475530070e-07 8.3726481901686242e-08 0.0000000000000000e+00  -1.8713046331753181e-07 1.1808439173908749e-07 0.0000000000000000e+00  -1.4212928322012897e-07 3.5371902208113404e-08 0.0000000000000000e+00  -2.0241348614756634e-07 1.1126393150828351e-08 0.0000000000000000e+00  -2.5050517656009901e-07 -9.3353966930289582e-09 0.0000000000000000e+00  -2.8329199677633183e-07 -1.5360572572089894e-08 0.0000000000000000e+00  -3.1485759465053619e-07 -1.3041817823755355e-08 0.0000000000000000e+00  -3.4049134868562713e-07 -4.4881657258522133e-09 0.0000000000000000e+00  -3.6322901885973647e-07 8.3219129750181136e-09 0.0000000000000000e+00  -3.8439910167920808e-07 2.3908191322619156e-08 0.0000000000000000e+00  -4.0488901438662818e-07 4.1263949506297214e-08 0.0000000000000000e+00  -4.2558430568292797e-07 5.9703566082619492e-08 0.0000000000000000e+00  -4.4707129294346380e-07 7.8792254662877334e-08 0.0000000000000000e+00  -4.6981679176284858e-07 9.8212877293603839e-08 0.0000000000000000e+00  -4.9419078044454140e-07 1.1760430295643966e-07 0.0000000000000000e+00  -5.2044955452619328e-07 1.3637542958306847e-07 0.0000000000000000e+00  -5.4865950063003251e-07 1.5353897419115707e-07 0.0000000000000000e+00  -5.7855057828634958e-07 1.6763989094286531e-07 0.0000000000000000e+00  -6.0935502796189640e-07 1.7684947818774979e-07 0.0000000000000000e+00  -6.3970762377443016e-07 1.7924756589500461e-07 0.0000000000000000e+00  -6.6769744896945021e-07 1.7323007450779588e-07 0.0000000000000000e+00  -6.9109080310789064e-07 1.5790638165945617e-07 0.0000000000000000e+00  -7.0770788963514273e-07 1.3333898954997919e-07 0.0000000000000000e+00  -7.1577919240910442e-07 1.0054432270440472e-07 0.0000000000000000e+00  -7.1427929792523151e-07 6.1264830082049334e-08 0.0000000000000000e+00  -7.0291671253666349e-07 1.7624457570164108e-08 0.0000000000000000e+00  -6.8228846178016232e-07 -2.8247939507055167e-08 0.0000000000000000e+00  -6.5323420909211711e-07 -7.4443899053311373e-08 0.0000000000000000e+00  -6.1756342970014974e-07 -1.1950876036458997e-07 0.0000000000000000e+00  -5.7595608795484809e-07 -1.6223178481659008e-07 0.0000000000000000e+00  -5.3174617654441797e-07 -2.0204652381370207e-07 0.0000000000000000e+00  -4.8293902583442695e-07 -2.3783725295565013e-07 0.0000000000000000e+00  -4.3831077846622930e-07 -2.7008557216672624e-07 0.0000000000000000e+00  -3.8482592065991692e-07 -2.9579030524181316e-07 0.0000000000000000e+00  -3.5354691944425034e-07 -3.1888159679610930e-07 0.0000000000000000e+00  -2.8694309395092074e-07 -3.2790270731599230e-07 0.0000000000000000e+00  -3.0499950782672841e-07 -3.4272839467063203e-07 0.0000000000000000e+00  -1.7339011635352033e-07 -3.1794420062533657e-07 0.0000000000000000e+00  -3.6003077447742782e-07 -3.4315792263831576e-07 0.0000000000000000e+00  5.1050586163264825e-08 -2.3833241683736988e-07 0.0000000000000000e+00  -7.5187335194287647e-07 -3.7464427752130111e-07 0.0000000000000000e+00  6.6314520977518935e-07 -3.4827589688029687e-08 0.0000000000000000e+00  -2.6435210105107155e-06 -6.1815645608861572e-07 0.0000000000000000e+00  2.4085387615974748e-06 8.9126096758393913e-07 0.0000000000000000e+00  0.0000000000000000e+00 0.0000000000000000e+00 0.0000000000000000e+00  0.0000000000000000e+00 0.0000000000000000e+00 0.0000000000000000e+00  -2.6855916366471771e-06 1.0431150265784004e-06 0.0000000000000000e+00  2.5000824406597330e-06 -1.1432319586280316e-07 0.0000000000000000e+00  -8.7259108145877164e-07 4.0093728862167771e-07 0.0000000000000000e+00  4.6306126012110007e-07 1.0118605769136870e-07 0.0000000000000000e+00  -2.2977544511071804e-07 1.7835925295240231e-07 0.0000000000000000e+00  -2.0416380160191610e-08 7.8994423778979116e-08 0.0000000000000000e+00  -1.4269706036069702e-07 6.2696156980211757e-08 0.0000000000000000e+00  -1.6737108997839106e-07 3.1690599489728791e-08 0.0000000000000000e+00  -2.0796032091065530e-07 2.1212599814745002e-08 0.0000000000000000e+00  -2.4475461198311405e-07 1.7844190651335529e-08 0.0000000000000000e+00  -2.7542587435193042e-07 2.2573757044430656e-08 0.0000000000000000e+00  -3.0393254221583464e-07 3.2669296437791792e-08 0.0000000000000000e+00  -3.2978090346800839e-07 4.6620734713870599e-08 0.0000000000000000e+00  -3.5404537800078286e-07 6.3176027235766434e-08 0.0000000000000000e+00  -3.7739066626653321e-07 8.1437533161512763e-08 0.0000000000000000e+00  -4.0030795866087106e-07 1.0082729149157666e-07 0.0000000000000000e+00  -4.2326752731771754e-07 1.2094562677528115e-07 0.0000000000000000e+00  -4.4668843982833426e-07 1.4139434364850055e-07 0.0000000000000000e+00  -4.7096178191814552e-07 1.6151996890270516e-07 0.0000000000000000e+00  -4.9635228870686250e-07 1.8015210985312371e-07 0.0000000000000000e+00  -5.2279498623412988e-07 1.9545083741893454e-07 0.0000000000000000e+00  -5.4964514419145461e-07 2.0500012922552584e-07 0.0000000000000000e+00  -5.7550126242146142e-07 2.0621175819720853e-07 0.0000000000000000e+00  -5.9825435957598165e-07 1.9694816053838766e-07 0.0000000000000000e+00  -6.1541228850675775e-07 1.7613130909243569e-07 0.0000000000000000e+00  -6.2465014581720343e-07 1.4408224218825666e-07 0.0000000000000000e+00  -6.2432054081197645e-07 1.0246338636985513e-07 0.0000000000000000e+00  -6.1385100582096509e-07 5.3871177089851693e-08 0.0000000000000000e+00  -5.9366249084098991e-07 1.2792176025869376e-09 0.0000000000000000e+00  -5.6520089582030447e-07 -5.2502308499195382e-08 0.0000000000000000e+00  -5.3010164869320929e-07 -1.0512539917999727e-07 0.0000000000000000e+00  -4.9087278095373207e-07 -1.5492889411733620e-07 0.0000000000000000e+00  -4.4860701711115129e-07 -2.0066664323086437e-07 0.0000000000000000e+00  -4.0700959064492113e-07 -2.4182876333623397e-07 0.0000000