<?xml version="1.0"?>
<VTKFile type="UnstructuredGrid"  version="0.1"  >
<UnstructuredGrid>
<Piece  NumberOfPoints="1617" NumberOfCells="3072">
<Points>
<DataArray  type="Float64"  NumberOfComponents="3"  format="ascii">0 0 0  0.03125 0 0  0.0625 0 0  0.09375 0 0  0.125 0 0  0.15625 0 0  0.1875 0 0  0.21875 0 0  0.25 0 0  0.28125 0 0  0.3125 0 0  0.34375 0 0  0.375 0 0  0.40625 0 0  0.4375 0 0  0.46875 0 0  0.5 0 0  0.53125 0 0  0.5625 0 0  0.59375 0 0  0.625 0 0  0.65625 0 0  0.6875 0 0  0.71875 0 0  0.75 0 0  0.78125 0 0  0.8125 0 0  0.84375 0 0  0.875 0 0  0.90625 0 0  0.9375 0 0  0.96875 0 0  1 0 0  1.03125 0 0  1.0625 0 0  1.09375 0 0  1.125 0 0  1.15625 0 0  1.1875 0 0  1.21875 0 0  1.25 0 0  1.28125 0 0  1.3125 0 0  1.34375 0 0  1.375 0 0  1.40625 0 0  1.4375 0 0  1.46875 0 0  1.5 0 0  0 0.03125 0  0.03125 0.03125 0  0.0625 0.03125 0  0.09375 0.03125 0  0.125 0.03125 0  0.15625 0.03125 0  0.1875 0.03125 0  0.21875 0.03125 0  0.25 0.03125 0  0.28125 0.03125 0  0.3125 0.03125 0  0.34375 0.03125 0  0.375 0.03125 0  0.40625 0.03125 0  0.4375 0.03125 0  0.46875 0.03125 0  0.5 0.03125 0  0.53125 0.03125 0  0.5625 0.03125 0  0.59375 0.03125 0  0.625 0.03125 0  0.65625 0.03125 0  0.6875 0.03125 0  0.71875 0.03125 0  0.75 0.03125 0  0.78125 0.03125 0  0.8125 0.03125 0  0.84375 0.03125 0  0.875 0.03125 0  0.90625 0.03125 0  0.9375 0.03125 0  0.96875 0.03125 0  1 0.03125 0  1.03125 0.03125 0  1.0625 0.03125 0  1.09375 0.03125 0  1.125 0.03125 0  1.15625 0.03125 0  1.1875 0.03125 0  1.21875 0.03125 0  1.25 0.03125 0  1.28125 0.03125 0  1.3125 0.03125 0  1.34375 0.03125 0  1.375 0.03125 0  1.40625 0.03125 0  1.4375 0.03125 0  1.46875 0.03125 0  1.5 0.03125 0  0 0.0625 0  0.03125 0.0625 0  0.0625 0.0625 0  0.09375 0.0625 0  0.125 0.0625 0  0.15625 0.0625 0  0.1875 0.0625 0  0.21875 0.0625 0  0.25 0.0625 0  0.28125 0.0625 0  0.3125 0.0625 0  0.34375 0.0625 0  0.375 0.0625 0  0.40625 0.0625 0  0.4375 0.0625 0  0.46875 0.0625 0  0.5 0.0625 0  0.53125 0.0625 0  0.5625 0.0625 0  0.59375 0.0625 0  0.625 0.0625 0  0.65625 0.0625 0  0.6875 0.0625 0  0.71875 0.0625 0  0.75 0.0625 0  0.78125 0.0625 0  0.8125 0.0625 0  0.84375 0.0625 0  0.875 0.0625 0  0.90625 0.0625 0  0.9375 0.0625 0  0.96875 0.0625 0  1 0.0625 0  1.03125 0.0625 0  1.0625 0.0625 0  1.09375 0.0625 0  1.125 0.0625 0  1.15625 0.0625 0  1.1875 0.0625 0  1.21875 0.0625 0  1.25 0.0625 0  1.28125 0.0625 0  1.3125 0.0625 0  1.34375 0.0625 0  1.375 0.0625 0  1.40625 0.0625 0  1.4375 0.0625 0  1.46875 0.0625 0  1.5 0.0625 0  0 0.09375 0  0.03125 0.09375 0  0.0625 0.09375 0  0.09375 0.09375 0  0.125 0.09375 0  0.15625 0.09375 0  0.1875 0.09375 0  0.21875 0.09375 0  0.25 0.09375 0  0.28125 0.09375 0  0.3125 0.09375 0  0.34375 0.09375 0  0.375 0.09375 0  0.40625 0.09375 0  0.4375 0.09375 0  0.46875 0.09375 0  0.5 0.09375 0  0.53125 0.09375 0  0.5625 0.09375 0  0.59375 0.09375 0  0.625 0.09375 0  0.65625 0.09375 0  0.6875 0.09375 0  0.71875 0.09375 0  0.75 0.09375 0  0.78125 0.09375 0  0.8125 0.09375 0  0.84375 0.09375 0  0.875 0.09375 0  0.90625 0.09375 0  0.9375 0.09375 0  0.96875 0.09375 0  1 0.09375 0  1.03125 0.09375 0  1.0625 0.09375 0  1.09375 0.09375 0  1.125 0.09375 0  1.15625 0.09375 0  1.1875 0.09375 0  1.21875 0.09375 0  1.25 0.09375 0  1.28125 0.09375 0  1.3125 0.09375 0  1.34375 0.09375 0  1.375 0.09375 0  1.40625 0.09375 0  1.4375 0.09375 0  1.46875 0.09375 0  1.5 0.09375 0  0 0.125 0  0.03125 0.125 0  0.0625 0.125 0  0.09375 0.125 0  0.125 0.125 0  0.15625 0.125 0  0.1875 0.125 0  0.21875 0.125 0  0.25 0.125 0  0.28125 0.125 0  0.3125 0.125 0  0.34375 0.125 0  0.375 0.125 0  0.40625 0.125 0  0.4375 0.125 0  0.46875 0.125 0  0.5 0.125 0  0.53125 0.125 0  0.5625 0.125 0  0.59375 0.125 0  0.625 0.125 0  0.65625 0.125 0  0.6875 0.125 0  0.71875 0.125 0  0.75 0.125 0  0.78125 0.125 0  0.8125 0.125 0  0.84375 0.125 0  0.875 0.125 0  0.90625 0.125 0  0.9375 0.125 0  0.96875 0.125 0  1 0.125 0  1.03125 0.125 0  1.0625 0.125 0  1.09375 0.125 0  1.125 0.125 0  1.15625 0.125 0  1.1875 0.125 0  1.21875 0.125 0  1.25 0.125 0  1.28125 0.125 0  1.3125 0.125 0  1.34375 0.125 0  1.375 0.125 0  1.40625 0.125 0  1.4375 0.125 0  1.46875 0.125 0  1.5 0.125 0  0 0.15625 0  0.03125 0.15625 0  0.0625 0.15625 0  0.09375 0.15625 0  0.125 0.15625 0  0.15625 0.15625 0  0.1875 0.15625 0  0.21875 0.15625 0  0.25 0.15625 0  0.28125 0.15625 0  0.3125 0.15625 0  0.34375 0.15625 0  0.375 0.15625 0  0.40625 0.15625 0  0.4375 0.15625 0  0.46875 0.15625 0  0.5 0.15625 0  0.53125 0.15625 0  0.5625 0.15625 0  0.59375 0.15625 0  0.625 0.15625 0  0.65625 0.15625 0  0.6875 0.15625 0  0.71875 0.15625 0  0.75 0.15625 0  0.78125 0.15625 0  0.8125 0.15625 0  0.84375 0.15625 0  0.875 0.15625 0  0.90625 0.15625 0  0.9375 0.15625 0  0.96875 0.15625 0  1 0.15625 0  1.03125 0.15625 0  1.0625 0.15625 0  1.09375 0.15625 0  1.125 0.15625 0  1.15625 0.15625 0  1.1875 0.15625 0  1.21875 0.15625 0  1.25 0.15625 0  1.28125 0.15625 0  1.3125 0.15625 0  1.34375 0.15625 0  1.375 0.15625 0  1.40625 0.15625 0  1.4375 0.15625 0  1.46875 0.15625 0  1.5 0.15625 0  0 0.1875 0  0.03125 0.1875 0  0.0625 0.1875 0  0.09375 0.1875 0  0.125 0.1875 0  0.15625 0.1875 0  0.1875 0.1875 0  0.21875 0.1875 0  0.25 0.1875 0  0.28125 0.1875 0  0.3125 0.1875 0  0.34375 0.1875 0  0.375 0.1875 0  0.40625 0.1875 0  0.4375 0.1875 0  0.46875 0.1875 0  0.5 0.1875 0  0.53125 0.1875 0  0.5625 0.1875 0  0.59375 0.1875 0  0.625 0.1875 0  0.65625 0.1875 0  0.6875 0.1875 0  0.71875 0.1875 0  0.75 0.1875 0  0.78125 0.1875 0  0.8125 0.1875 0  0.84375 0.1875 0  0.875 0.1875 0  0.90625 0.1875 0  0.9375 0.1875 0  0.96875 0.1875 0  1 0.1875 0  1.03125 0.1875 0  1.0625 0.1875 0  1.09375 0.1875 0  1.125 0.1875 0  1.15625 0.1875 0  1.1875 0.1875 0  1.21875 0.1875 0  1.25 0.1875 0  1.28125 0.1875 0  1.3125 0.1875 0  1.34375 0.1875 0  1.375 0.1875 0  1.40625 0.1875 0  1.4375 0.1875 0  1.46875 0.1875 0  1.5 0.1875 0  0 0.21875 0  0.03125 0.21875 0  0.0625 0.21875 0  0.09375 0.21875 0  0.125 0.21875 0  0.15625 0.21875 0  0.1875 0.21875 0  0.21875 0.21875 0  0.25 0.21875 0  0.28125 0.21875 0  0.3125 0.21875 0  0.34375 0.21875 0  0.375 0.21875 0  0.40625 0.21875 0  0.4375 0.21875 0  0.46875 0.21875 0  0.5 0.21875 0  0.53125 0.21875 0  0.5625 0.21875 0  0.59375 0.21875 0  0.625 0.21875 0  0.65625 0.21875 0  0.6875 0.21875 0  0.71875 0.21875 0  0.75 0.21875 0  0.78125 0.21875 0  0.8125 0.21875 0  0.84375 0.21875 0  0.875 0.21875 0  0.90625 0.21875 0  0.9375 0.21875 0  0.96875 0.21875 0  1 0.21875 0  1.03125 0.21875 0  1.0625 0.21875 0  1.09375 0.21875 0  1.125 0.21875 0  1.15625 0.21875 0  1.1875 0.21875 0  1.21875 0.21875 0  1.25 0.21875 0  1.28125 0.21875 0  1.3125 0.21875 0  1.34375 0.21875 0  1.375 0.21875 0  1.40625 0.21875 0  1.4375 0.21875 0  1.46875 0.21875 0  1.5 0.21875 0  0 0.25 0  0.03125 0.25 0  0.0625 0.25 0  0.09375 0.25 0  0.125 0.25 0  0.15625 0.25 0  0.1875 0.25 0  0.21875 0.25 0  0.25 0.25 0  0.28125 0.25 0  0.3125 0.25 0  0.34375 0.25 0  0.375 0.25 0  0.40625 0.25 0  0.4375 0.25 0  0.46875 0.25 0  0.5 0.25 0  0.53125 0.25 0  0.5625 0.25 0  0.59375 0.25 0  0.625 0.25 0  0.65625 0.25 0  0.6875 0.25 0  0.71875 0.25 0  0.75 0.25 0  0.78125 0.25 0  0.8125 0.25 0  0.84375 0.25 0  0.875 0.25 0  0.90625 0.25 0  0.9375 0.25 0  0.96875 0.25 0  1 0.25 0  1.03125 0.25 0  1.0625 0.25 0  1.09375 0.25 0  1.125 0.25 0  1.15625 0.25 0  1.1875 0.25 0  1.21875 0.25 0  1.25 0.25 0  1.28125 0.25 0  1.3125 0.25 0  1.34375 0.25 0  1.375 0.25 0  1.40625 0.25 0  1.4375 0.25 0  1.46875 0.25 0  1.5 0.25 0  0 0.28125 0  0.03125 0.28125 0  0.0625 0.28125 0  0.09375 0.28125 0  0.125 0.28125 0  0.15625 0.28125 0  0.1875 0.28125 0  0.21875 0.28125 0  0.25 0.28125 0  0.28125 0.28125 0  0.3125 0.28125 0  0.34375 0.28125 0  0.375 0.28125 0  0.40625 0.28125 0  0.4375 0.28125 0  0.46875 0.28125 0  0.5 0.28125 0  0.53125 0.28125 0  0.5625 0.28125 0  0.59375 0.28125 0  0.625 0.28125 0  0.65625 0.28125 0  0.6875 0.28125 0  0.71875 0.28125 0  0.75 0.28125 0  0.78125 0.28125 0  0.8125 0.28125 0  0.84375 0.28125 0  0.875 0.28125 0  0.90625 0.28125 0  0.9375 0.28125 0  0.96875 0.28125 0  1 0.28125 0  1.03125 0.28125 0  1.0625 0.28125 0  1.09375 0.28125 0  1.125 0.28125 0  1.15625 0.28125 0  1.1875 0.28125 0  1.21875 0.28125 0  1.25 0.28125 0  1.28125 0.28125 0  1.3125 0.28125 0  1.34375 0.28125 0  1.375 0.28125 0  1.40625 0.28125 0  1.4375 0.28125 0  1.46875 0.28125 0  1.5 0.28125 0  0 0.3125 0  0.03125 0.3125 0  0.0625 0.3125 0  0.09375 0.3125 0  0.125 0.3125 0  0.15625 0.3125 0  0.1875 0.3125 0  0.21875 0.3125 0  0.25 0.3125 0  0.28125 0.3125 0  0.3125 0.3125 0  0.34375 0.3125 0  0.375 0.3125 0  0.40625 0.3125 0  0.4375 0.3125 0  0.46875 0.3125 0  0.5 0.3125 0  0.53125 0.3125 0  0.5625 0.3125 0  0.59375 0.3125 0  0.625 0.3125 0  0.65625 0.3125 0  0.6875 0.3125 0  0.71875 0.3125 0  0.75 0.3125 0  0.78125 0.3125 0  0.8125 0.3125 0  0.84375 0.3125 0  0.875 0.3125 0  0.90625 0.3125 0  0.9375 0.3125 0  0.96875 0.3125 0  1 0.3125 0  1.03125 0.3125 0  1.0625 0.3125 0  1.09375 0.3125 0  1.125 0.3125 0  1.15625 0.3125 0  1.1875 0.3125 0  1.21875 0.3125 0  1.25 0.3125 0  1.28125 0.3125 0  1.3125 0.3125 0  1.34375 0.3125 0  1.375 0.3125 0  1.40625 0.3125 0  1.4375 0.3125 0  1.46875 0.3125 0  1.5 0.3125 0  0 0.34375 0  0.03125 0.34375 0  0.0625 0.34375 0  0.09375 0.34375 0  0.125 0.34375 0  0.15625 0.34375 0  0.1875 0.34375 0  0.21875 0.34375 0  0.25 0.34375 0  0.28125 0.34375 0  0.3125 0.34375 0  0.34375 0.34375 0  0.375 0.34375 0  0.40625 0.34375 0  0.4375 0.34375 0  0.46875 0.34375 0  0.5 0.34375 0  0.53125 0.34375 0  0.5625 0.34375 0  0.59375 0.34375 0  0.625 0.34375 0  0.65625 0.34375 0  0.6875 0.34375 0  0.71875 0.34375 0  0.75 0.34375 0  0.78125 0.34375 0  0.8125 0.34375 0  0.84375 0.34375 0  0.875 0.34375 0  0.90625 0.34375 0  0.9375 0.34375 0  0.96875 0.34375 0  1 0.34375 0  1.03125 0.34375 0  1.0625 0.34375 0  1.09375 0.34375 0  1.125 0.34375 0  1.15625 0.34375 0  1.1875 0.34375 0  1.21875 0.34375 0  1.25 0.34375 0  1.28125 0.34375 0  1.3125 0.34375 0  1.34375 0.34375 0  1.375 0.34375 0  1
[...]
<PointData  Vectors="f_17"> 
<DataArray  type="Float64"  Name="f_17"  NumberOfComponents="3" format="ascii">0.0000000000000000e+00 0.0000000000000000e+00 0.0000000000000000e+00  0.0000000000000000e+00 0.0000000000000000e+00 0.0000000000000000e+00  0.0000000000000000e+00 0.0000000000000000e+00 0.0000000000000000e+00  0.0000000000000000e+00 0.0000000000000000e+00 0.0000000000000000e+00  0.0000000000000000e+00 0.0000000000000000e+00 0.0000000000000000e+00  0.0000000000000000e+00 0.0000000000000000e+00 0.0000000000000000e+00  0.0000000000000000e+00 0.0000000000000000e+00 0.0000000000000000e+00  0.0000000000000000e+00 0.0000000000000000e+00 0.0000000000000000e+00  0.0000000000000000e+00 0.0000000000000000e+00 0.0000000000000000e+00  0.0000000000000000e+00 0.0000000000000000e+00 0.0000000000000000e+00  0.0000000000000000e+00 0.0000000000000000e+00 0.0000000000000000e+00  0.0000000000000000e+00 0.0000000000000000e+00 0.0000000000000000e+00  0.0000000000000000e+00 0.0000000000000000e+00 0.0000000000000000e+00  0.0000000000000000e+00 0.0000000000000000e+00 0.0000000000000000e+00  0.0000000000000000e+00 0.0000000000000000e+00 0.0000000000000000e+00  0.0000000000000000e+00 0.0000000000000000e+00 0.0000000000000000e+00  0.0000000000000000e+00 0.0000000000000000e+00 0.0000000000000000e+00  0.0000000000000000e+00 0.0000000000000000e+00 0.0000000000000000e+00  0.0000000000000000e+00 0.0000000000000000e+00 0.0000000000000000e+00  0.0000000000000000e+00 0.0000000000000000e+00 0.0000000000000000e+00  0.0000000000000000e+00 0.0000000000000000e+00 0.0000000000000000e+00  0.0000000000000000e+00 0.0000000000000000e+00 0.0000000000000000e+00  0.0000000000000000e+00 0.0000000000000000e+00 0.0000000000000000e+00  0.0000000000000000e+00 0.0000000000000000e+00 0.0000000000000000e+00  0.0000000000000000e+00 0.0000000000000000e+00 0.0000000000000000e+00  0.0000000000000000e+00 0.0000000000000000e+00 0.0000000000000000e+00  0.0000000000000000e+00 0.0000000000000000e+00 0.0000000000000000e+00  0.0000000000000000e+00 0.0000000000000000e+00 0.0000000000000000e+00  0.0000000000000000e+00 0.0000000000000000e+00 0.0000000000000000e+00  0.0000000000000000e+00 0.0000000000000000e+00 0.0000000000000000e+00  0.0000000000000000e+00 0.0000000000000000e+00 0.0000000000000000e+00  0.0000000000000000e+00 0.0000000000000000e+00 0.0000000000000000e+00  0.0000000000000000e+00 0.0000000000000000e+00 0.0000000000000000e+00  0.0000000000000000e+00 0.0000000000000000e+00 0.0000000000000000e+00  0.0000000000000000e+00 0.0000000000000000e+00 0.0000000000000000e+00  0.0000000000000000e+00 0.0000000000000000e+00 0.0000000000000000e+00  0.0000000000000000e+00 0.0000000000000000e+00 0.0000000000000000e+00  0.0000000000000000e+00 0.0000000000000000e+00 0.0000000000000000e+00  0.0000000000000000e+00 0.0000000000000000e+00 0.0000000000000000e+00  0.0000000000000000e+00 0.0000000000000000e+00 0.0000000000000000e+00  0.0000000000000000e+00 0.0000000000000000e+00 0.0000000000000000e+00  0.0000000000000000e+00 0.0000000000000000e+00 0.0000000000000000e+00  0.0000000000000000e+00 0.0000000000000000e+00 0.0000000000000000e+00  0.0000000000000000e+00 0.0000000000000000e+00 0.0000000000000000e+00  0.0000000000000000e+00 0.0000000000000000e+00 0.0000000000000000e+00  0.0000000000000000e+00 0.0000000000000000e+00 0.0000000000000000e+00  0.0000000000000000e+00 0.0000000000000000e+00 0.0000000000000000e+00  0.0000000000000000e+00 0.0000000000000000e+00 0.0000000000000000e+00  0.0000000000000000e+00 0.0000000000000000e+00 0.0000000000000000e+00  0.0000000000000000e+00 0.0000000000000000e+00 0.0000000000000000e+00  -5.4510144415102104e-08 -3.1210429793072913e-08 0.0000000000000000e+00  -1.2108917017479003e-07 1.0678661715535508e-07 0.0000000000000000e+00  -3.6177586534663682e-08 -3.7994799905126832e-09 0.0000000000000000e+00  -2.3115243586426911e-07 -3.7695296209422507e-08 0.0000000000000000e+00  -2.2237549436506580e-07 -6.4997383982545628e-08 0.0000000000000000e+00  -2.1807566471460737e-07 -7.1431232920571323e-08 0.0000000000000000e+00  -2.1687865539411446e-07 -6.5668286629517753e-08 0.0000000000000000e+00  -2.0404078986340418e-07 -5.7182603600476333e-08 0.0000000000000000e+00  -1.9158516396875022e-07 -4.7436904490687952e-08 0.0000000000000000e+00  -1.7986049321707987e-07 -3.7633859916215484e-08 0.0000000000000000e+00  -1.7029652062303838e-07 -2.8229864829543846e-08 0.0000000000000000e+00  -1.6423099758294591e-07 -1.9324430289582360e-08 0.0000000000000000e+00  -1.6217575496529547e-07 -1.0946894889131343e-08 0.0000000000000000e+00  -1.6451905375863410e-07 -3.0547326993081555e-09 0.0000000000000000e+00  -1.7149183856933381e-07 4.4307798414450750e-09 0.0000000000000000e+00  -1.8323766120606006e-07 1.1595508657126235e-08 0.0000000000000000e+00  -1.9986035003255610e-07 1.8502007763661259e-08 0.0000000000000000e+00  -2.2141389719183038e-07 2.5154515567052113e-08 0.0000000000000000e+00  -2.4786419132156998e-07 3.1466426196016595e-08 0.0000000000000000e+00  -2.7902005411236252e-07 3.7240057045927208e-08 0.0000000000000000e+00  -3.1444831300836671e-07 4.2169259269813913e-08 0.0000000000000000e+00  -3.5339772719138470e-07 4.5871572262488103e-08 0.0000000000000000e+00  -3.9475572350022300e-07 4.7947790350135124e-08 0.0000000000000000e+00  -4.3706500253382198e-07 4.8056286519405291e-08 0.0000000000000000e+00  -4.7859761837304718e-07 4.5982317027536895e-08 0.0000000000000000e+00  -5.1749675882686744e-07 4.1681717525663368e-08 0.0000000000000000e+00  -5.5191533820070013e-07 3.5289041368741549e-08 0.0000000000000000e+00  -5.8020658987529329e-07 2.7085018896843580e-08 0.0000000000000000e+00  -6.0095179797100924e-07 1.7448604814990530e-08 0.0000000000000000e+00  -6.1319187365289349e-07 6.7765672302958153e-09 0.0000000000000000e+00  -6.1606996138943028e-07 -4.5319141902887826e-09 0.0000000000000000e+00  -6.0954087248630383e-07 -1.6206350564407714e-08 0.0000000000000000e+00  -5.9275970819138161e-07 -2.7905532652035075e-08 0.0000000000000000e+00  -5.6723064584070713e-07 -3.9701188716828902e-08 0.0000000000000000e+00  -5.3009810427220465e-07 -5.0958862879539142e-08 0.0000000000000000e+00  -4.8787754455608717e-07 -6.2756076578182077e-08 0.0000000000000000e+00  -4.2803705009258166e-07 -7.2418059945935382e-08 0.0000000000000000e+00  -3.7752075662037503e-07 -8.5357779274231583e-08 0.0000000000000000e+00  -2.8270027387112214e-07 -8.9099925103889931e-08 0.0000000000000000e+00  -2.5502534692575268e-07 -1.0904641818576840e-07 0.0000000000000000e+00  -7.1265173600373223e-08 -8.8707840855618584e-08 0.0000000000000000e+00  -1.8583111194750635e-07 -1.4255222119160245e-07 0.0000000000000000e+00  3.0298115651901456e-07 -2.5168800250599916e-08 0.0000000000000000e+00  -4.3243441849376203e-07 -2.3294768908863190e-07 0.0000000000000000e+00  1.1222825494011255e-06 2.3546804973993407e-07 0.0000000000000000e+00  -2.4791285310074416e-06 -7.5650876593673544e-07 0.0000000000000000e+00  2.9273292814157256e-06 1.3340317258934686e-06 0.0000000000000000e+00  0.0000000000000000e+00 0.0000000000000000e+00 0.0000000000000000e+00  0.0000000000000000e+00 0.0000000000000000e+00 0.0000000000000000e+00  -1.4412705593950194e-06 6.1042511151435382e-07 0.0000000000000000e+00  7.9759756376176367e-07 -4.4518831678419821e-08 0.0000000000000000e+00  -7.3906919012603240e-08 1.0633649678063036e-07 0.0000000000000000e+00  -2.3005334313419091e-07 -4.3121126062300269e-09 0.0000000000000000e+00  -2.4240619685874368e-07 -5.3635934071074187e-08 0.0000000000000000e+00  -3.0402130727671552e-07 -7.6537209476803921e-08 0.0000000000000000e+00  -3.0802106631732250e-07 -8.3055185505843240e-08 0.0000000000000000e+00  -3.0245910001945808e-07 -8.0355751374562858e-08 0.0000000000000000e+00  -2.9265203199163743e-07 -7.2155609450332477e-08 0.0000000000000000e+00  -2.7976534812543963e-07 -6.0989997929257686e-08 0.0000000000000000e+00  -2.6839866767880720e-07 -4.8193400262302356e-08 0.0000000000000000e+00  -2.5979744550001777e-07 -3.4603284645138462e-08 0.0000000000000000e+00  -2.5496074063896178e-07 -2.0734138146940400e-08 0.0000000000000000e+00  -2.5454022895353589e-07 -6.8625543690923238e-09 0.0000000000000000e+00  -2.5885833434226571e-07 6.8886140523243419e-09 0.0000000000000000e+00  -2.6811815701489654e-07 2.0481134025404599e-08 0.0000000000000000e+00  -2.8243246133183029e-07 3.3889474761366032e-08 0.0000000000000000e+00  -3.0184247393019594e-07 4.7021025251869501e-08 0.0000000000000000e+00  -3.2629120106929493e-07 5.9639195609655870e-08 0.0000000000000000e+00  -3.5555198279545475e-07 7.1308214024408050e-08 0.0000000000000000e+00  -3.8913224064287468e-07 8.1382906926504740e-08 0.0000000000000000e+00  -4.2618129395168472e-07 8.9061222590065747e-08 0.0000000000000000e+00  -4.6543678317892019e-07 9.3499059042836201e-08 0.0000000000000000e+00  -5.0524799528654223e-07 9.3962964172387306e-08 0.0000000000000000e+00  -5.4367622871648943e-07 8.9978085893363165e-08 0.0000000000000000e+00  -5.7868039342070082e-07 8.1425635723876756e-08 0.0000000000000000e+00  -6.0829729711205314e-07 6.8563821414835091e-08 0.0000000000000000e+00  -6.3086848748660254e-07 5.1965499875713085e-08 0.0000000000000000e+00  -6.4506716497768987e-07 3.2411748180601750e-08 0.0000000000000000e+00  -6.5013361755952816e-07 1.0742544945728795e-08 0.0000000000000000e+00  -6.4545702248008478e-07 -1.2216251888583353e-08 0.0000000000000000e+00  -6.3131435032441389e-07 -3.5822722431876371e-08 0.0000000000000000e+00  -6.0712669107754303e-07 -5.9432551271524219e-08 0.0000000000000000e+00  -5.7479272217278546e-07 -8.2866606404831599e-08 0.0000000000000000e+00  -5.3164387054908267e-07 -1.0529684757722879e-07 0.0000000000000000e+00  -4.8477338726560774e-07 -1.2753268195643918e-07 0.0000000000000000e+00  -4.2169469181165776e-07 -1.4679018353198752e-07 0.0000000000000000e+00  -3.7037118835023803e-07 -1.6775549189175310e-07 0.0000000000000000e+00  -2.7714117136159256e-07 -1.7840813933252578e-07 0.0000000000000000e+00  -2.5483489948340900e-07 -2.0124931172265401e-07 0.0000000000000000e+00  -8.1430661553864029e-08 -1.8416621548717947e-07 0.0000000000000000e+00  -2.1036187415517451e-07 -2.2941078414269038e-07 0.0000000000000000e+00  2.4875073086771686e-07 -1.1731944673295310e-07 0.0000000000000000e+00  -5.0600159312362696e-07 -2.9326992849899286e-07 0.0000000000000000e+00  9.3726175603258290e-07 1.3370196619364846e-07 0.0000000000000000e+00  -2.4919765315676181e-06 -6.3977228990616523e-07 0.0000000000000000e+00  2.8541203054465136e-06 1.3376051314153919e-06 0.0000000000000000e+00  0.0000000000000000e+00 0.0000000000000000e+00 0.0000000000000000e+00  0.0000000000000000e+00 0.0000000000000000e+00 0.0000000000000000e+00  -2.5352895037552902e-06 1.0745903397624671e-06 0.0000000000000000e+00  1.7383674008724124e-06 -1.5716221652427115e-07 0.0000000000000000e+00  -3.6038823812904417e-07 2.5391989137799588e-07 0.0000000000000000e+00  4.0512384184942136e-08 1.2040552563950994e-08 0.0000000000000000e+00  -1.0030215159093326e-07 -1.1543444623498245e-08 0.0000000000000000e+00  -1.5868463345674985e-07 -6.1048718120944608e-08 0.0000000000000000e+00  -1.7771367105172017e-07 -7.8821257259462610e-08 0.0000000000000000e+00  -2.0790754317665081e-07 -8.3256014336676418e-08 0.0000000000000000e+00  -2.2314286406730266e-07 -7.8308480033200234e-08 0.0000000000000000e+00  -2.3361223796344749e-07 -6.7489236579423699e-08 0.0000000000000000e+00  -2.4148401812123713e-07 -5.3210869798257277e-08 0.0000000000000000e+00  -2.4790444366537526e-07 -3.6977823211251322e-08 0.0000000000000000e+00  -2.5466132722523255e-07 -1.9762478978971715e-08 0.0000000000000000e+00  -2.6265710417132965e-07 -2.1396221494825240e-09 0.0000000000000000e+00  -2.7258544112809734e-07 1.5587017788028607e-08 0.0000000000000000e+00  -2.8495062112606444e-07 3.3283426878835823e-08 0.0000000000000000e+00  -3.0011165895458674e-07 5.0877905747995983e-08 0.0000000000000000e+00  -3.1833926543451648e-07 6.8237465193693059e-08 0.0000000000000000e+00  -3.3979604399180687e-07 8.5041502622841188e-08 0.0000000000000000e+00  -3.6447113535795837e-07 1.0068028138277983e-07 0.0000000000000000e+00  -3.9207366439971442e-07 1.1422032279689444e-07 0.0000000000000000e+00  -4.2192151119543542e-07 1.2447267636553950e-07 0.0000000000000000e+00  -4.5287510050119403e-07 1.3016994710729165e-07 0.0000000000000000e+00  -4.8337053916509071e-07 1.3021332299996327e-07 0.0000000000000000e+00  -5.1155833277945988e-07 1.2391467471908737e-07 0.0000000000000000e+00  -5.3554786772769203e-07 1.1115247231590580e-07 0.0000000000000000e+00  -5.5364105549279629e-07 9.2395002639550753e-08 0.0000000000000000e+00  -5.6458998469739287e-07 6.8586994335762532e-08 0.0000000000000000e+00  -5.6760799166471996e-07 4.0962533430955363e-08 0.0000000000000000e+00  -5.6257433578328619e-07 1.0812670726993537e-08 0.0000000000000000e+00  -5.4953841808791198e-07 -2.0646071754566584e-08 0.0000000000000000e+00  -5.2945064886159809e-07 -5.2473739138617653e-08 0.0000000000000000e+00  -5.0230769797100354e-07 -8.3811938428503509e-08 0.0000000000000000e+00  -4.7062579110973963e-07 -1.1434020779869841e-07 0.0000000000000000e+00  -4.3212948746620882e-07 -1.4311006034318926e-07 0.0000000000000000e+00  -3.9459013038127397e-07 -1.7081288166683908e-07 0.0000000000000000e+00  -3.4564295491014562e-07 -1.9452668406777534e-07 0.0000000000000000e+00  -3.1423588374708616e-07 -2.1863091475947653e-07 0.0000000000000000e+00  -2.4635753701882473e-07 -2.3117053823242099e-07 0.0000000000000000e+00  -2.5592388695114102e-07 -2.5346648936024150e-07 0.0000000000000000e+00  -1.2095222667284137e-07 -2.3608405771813495e-07 0.0000000000000000e+00  -2.9098194212316318e-07 -2.7529479476613987e-07 0.0000000000000000e+00  1.1278154245052560e-07 -1.7098169633212858e-07 0.0000000000000000e+00  -6.7062999001460945e-07 -3.3098639707172419e-07 0.0000000000000000e+00  6.9133502439651798e-07 4.1261960376345907e-08 0.0000000000000000e+00  -2.6620991377438072e-06 -6.2228292402704285e-07 0.0000000000000000e+00  2.4956940044835842e-06 1.1048492292477052e-06 0.0000000000000000e+00  0.0000000000000000e+00 0.0000000000000000e+00 0.0000000000000000e+00  0.0000000000000000e+00 0.0000000000000000e+00 0.0000000000000000e+00  -2.7980261982459827e-06 1.1194949199959053e-06 0.0000000000000000e+00  2.3414834227062694e-06 -1.9467895913340872e-07 0.0000000000000000e+00  -6.7785710004520353e-07 3.2366057959479830e-07 0.0000000000000000e+00  2.9533571067739760e-07 1.6361398830305401e-08 0.0000000000000000e+00  -1.2967490285277278e-07 5.4157518044860400e-08 0.0000000000000000e+00  -7.2735709142571329e-08 -2.3770506486424260e-08 0.0000000000000000e+00  -1.2101106283287729e-07 -4.2850673229523505e-08 0.0000000000000000e+00  -1.5771763318909068e-07 -5.8467593429094666e-08 0.0000000000000000e+00  -1.7997481228435531e-07 -6.0197687110213052e-08 0.0000000000000000e+00  -2.0180598831834064e-07 -5.4281359640396917e-08 0.0000000000000000e+00  -2.1837093295316420e-07 -4.2865884719441738e-08 0.0000000000000000e+00  -2.3255816582583163e-07 -2.7892492716465641e-08 0.0000000000000000e+00  -2.4554238567811815e-07 -1.0759737913689158e-08 0.0000000000000000e+00  -2.5807504023058646e-07 7.6361232593979531e-09 0.0000000000000000e+00  -2.7093065594893953e-07 2.6737556924206945e-08 0.0000000000000000e+00  -2.8461697448560690e-07 4.6250924866563579e-08 0.0000000000000000e+00  -2.9955932556868765e-07 6.6012863519444493e-08 0.0000000000000000e+00  -3.1612766662483722e-07 8.5830486104989123e-08 0.0000000000000000e+00  -3.3462462126847302e-07 1.0529702770806488e-07 0.0000000000000000e+00  -3.5521463217833848e-07 1.2362391706829715e-07 0.0000000000000000e+00  -3.7778214997391245e-07 1.3956093437061176e-07 0.0000000000000000e+00  -4.0177176934479899e-07 1.5147344116502495e-07 0.0000000000000000e+00  -4.2608312099821960e-07 1.5759966310214588e-07 0.0000000000000000e+00  -4.4910748227958874e-07 1.5642968219216871e-07 0.0000000000000000e+00  -4.6892520651504503e-07 1.4707816937649523e-07 0.0000000000000000e+00  -4.8364980115968417e-07 1.2951156646754518e-07 0.0000000000000000e+00  -4.9175109680611178e-07 1.0455376175205499e-07 0.0000000000000000e+00  -4.9236229492549377e-07 7.3680031637490630e-08 0.0000000000000000e+00  -4.8525513106756614e-07 3.8705385895363948e-08 0.0000000000000000e+00  -4.7099264290985263e-07 1.4430485794285056e-09 0.0000000000000000e+00  -4.5029391430144749e-07 -3.6491650546982902e-08 0.0000000000000000e+00  -4.2477648863525532e-07 -7.3896242472493288e-08 0.0000000000000000e+00  -3.9487894438932295e-07 -1.0976437545718303e-07 0.0000000000000000e+00  -3.6365574383105751e-07 -1.4368894355810465e-07 0.0000000000000000e+00  -3.2881977868809642e-07 -1.7467721820436819e-07 0.0000000000000000e+00  -2.9882846116075723e-07 -2.0330860317810705e-07 0.0000000000000000e+00  -2.6035417613206634e-07 -2.2666500350698062e-07 0.0000000000000000e+00  -2.4410614538310747e-07 -2.4875284997106410e-07 0.0000000000000000e+00  -1.9234337670278814e-07 -2.5818946652789103e-07 0.0000000000000000e+00  -2.2459603659120256e-07 -2.7492592809485084e-07 0.0000000000000000e+00  -1.0669901021930373e-07 -2.5362804823888975e-07 0.0000000000000000e+00  -3.0583642808996745e-07 -2.8403033795085387e-07 0.0000000000000000e+00  9.2110073018313960e-08 -1.8626237972854723e-07 0.0000000000000000e+00  -7.2258762392231477e-07 -3.3117495486776963e-07 0.0000000000000000e+00  6.6222284066058134e-07 -5.9228510413716294e-09 0.0000000000000000e+00  -2.6965830330266001e-06 -5.9025716921728051e-07 0.0000000000000000e+00  2.4875646902454919e-06 9.3716957129542439e-07 0.0000000000000000e+00  0.0000000000000000e+00 0.0000000000000000e+00 0.0000000000000000e+00  0.0000000000000000e+00 0.0000000000000000e+00 0.0000000000000000e+00  -2.7500022475627159e-06 1.0185152939029949e-06 0.0000000000000000e+00  2.5820224731666555e-06 -1.7838355388340715e-07 0.0000000000000000e+00  -8.2561676054646977e-07 3.1974435613952337e-07 0.0000000000000000e+00  4.9829908784949340e-07 2.2588635756803174e-08 0.0000000000000000e+00  -1.8625536521548354e-07 1.0279969927484994e-07 0.0000000000000000e+00  3.2038330593905712e-08 8.4401199711511762e-09 0.0000000000000000e+00  -8.0274013056627503e-08 -2.1695711267670405e-09 0.0000000000000000e+00  -9.5245751764084256e-08 -2.7685552787719865e-08 0.0000000000000000e+00  -1.2662532135623404e-07 -3.3190633469483054e-08 0.0000000000000000e+00  -1.5475846114089657e-07 -3.2351214046759241e-08 0.0000000000000000e+00  -1.7727181334404155e-07 -2.4253395753018010e-08 0.0000000000000000e+00  -1.9802869923119558e-07 -1.1611542178427922e-08 0.0000000000000000e+00  -2.1642505505772143e-07 4.1468168845497851e-09 0.0000000000000000e+00  -2.3342920026852334e-07 2.1894542157257773e-08 0.0000000000000000e+00  -2.4961548872124773e-07 4.0885933216337636e-08 0.0000000000000000e+00  -2.6540991133375797e-07 6.0714840891904954e-08 0.0000000000000000e+00  -2.8124806410087260e-07 8.1171477826964211e-08 0.0000000000000000e+00  -2.9755000850394425e-07 1.0206735984535397e-07 0.0000000000000000e+00  -3.1474881715252695e-07 1.2298075781147172e-07 0.0000000000000000e+00  -3.3319843381954601e-07 1.4299349421674751e-07 0.0000000000000000e+00  -3.5297664786408424e-07 1.6052829875172484e-07 0.0000000000000000e+00  -3.7363866483013408e-07 1.7342018737669158e-07 0.0000000000000000e+00  -3.9403649930055811e-07 1.7928624913438314e-07 0.0000000000000000e+00  -4.1235294509065015e-07 1.7610820286278905e-07 0.0000000000000000e+00  -4.2639746990902627e-07 1.6280608414729781e-07 0.0000000000000000e+00  -4.3411914331511197e-07 1.3956057105903853e-07 0.0000000000000000e+00  -4.3407934889077844e-07 1.0776423779562567e-07 0.0000000000000000e+00  -4.2582114524961956e-07 6.9648076045246237e-08 0.0000000000000000e+00  -4.0977611498099189e-07 2.7773414632530631e-08 0.0000000000000000e+00  -3.8730051201052019e-07 -1.5459123134067865e-08 0.0000000000000000e+00  -3.5985840367456642e-07 -5.8069823032311670e-08 0.0000000000000000e+00  -3.2972684491760886e-07 -9.8702822387976662e-08 0.0000000000000000e+00  -2.9773479914038544e-07 -1.3634903812788226e-07 0.0000000000000000e+00  -2.6730390315990446e-07 -1.7067444710816054e