<?xml version="1.0"?>
<VTKFile type="UnstructuredGrid"  version="0.1"  >
<UnstructuredGrid>
<Piece  NumberOfPoints="1617" NumberOfCells="3072">
<Points>
<DataArray  type="Float64"  NumberOfComponents="3"  format="ascii">0 0 0  0.03125 0 0  0.0625 0 0  0.09375 0 0  0.125 0 0  0.15625 0 0  0.1875 0 0  0.21875 0 0  0.25 0 0  0.28125 0 0  0.3125 0 0  0.34375 0 0  0.375 0 0  0.40625 0 0  0.4375 0 0  0.46875 0 0  0.5 0 0  0.53125 0 0  0.5625 0 0  0.59375 0 0  0.625 0 0  0.65625 0 0  0.6875 0 0  0.71875 0 0  0.75 0 0  0.78125 0 0  0.8125 0 0  0.84375 0 0  0.875 0 0  0.90625 0 0  0.9375 0 0  0.96875 0 0  1 0 0  1.03125 0 0  1.0625 0 0  1.09375 0 0  1.125 0 0  1.15625 0 0  1.1875 0 0  1.21875 0 0  1.25 0 0  1.28125 0 0  1.3125 0 0  1.34375 0 0  1.375 0 0  1.40625 0 0  1.4375 0 0  1.46875 0 0  1.5 0 0  0 0.03125 0  0.03125 0.03125 0  0.0625 0.03125 0  0.09375 0.03125 0  0.125 0.03125 0  0.15625 0.03125 0  0.1875 0.03125 0  0.21875 0.03125 0  0.25 0.03125 0  0.28125 0.03125 0  0.3125 0.03125 0  0.34375 0.03125 0  0.375 0.03125 0  0.40625 0.03125 0  0.4375 0.03125 0  0.46875 0.03125 0  0.5 0.03125 0  0.53125 0.03125 0  0.5625 0.03125 0  0.59375 0.03125 0  0.625 0.03125 0  0.65625 0.03125 0  0.6875 0.03125 0  0.71875 0.03125 0  0.75 0.03125 0  0.78125 0.03125 0  0.8125 0.03125 0  0.84375 0.03125 0  0.875 0.03125 0  0.90625 0.03125 0  0.9375 0.03125 0  0.96875 0.03125 0  1 0.03125 0  1.03125 0.03125 0  1.0625 0.03125 0  1.09375 0.03125 0  1.125 0.03125 0  1.15625 0.03125 0  1.1875 0.03125 0  1.21875 0.03125 0  1.25 0.03125 0  1.28125 0.03125 0  1.3125 0.03125 0  1.34375 0.03125 0  1.375 0.03125 0  1.40625 0.03125 0  1.4375 0.03125 0  1.46875 0.03125 0  1.5 0.03125 0  0 0.0625 0  0.03125 0.0625 0  0.0625 0.0625 0  0.09375 0.0625 0  0.125 0.0625 0  0.15625 0.0625 0  0.1875 0.0625 0  0.21875 0.0625 0  0.25 0.0625 0  0.28125 0.0625 0  0.3125 0.0625 0  0.34375 0.0625 0  0.375 0.0625 0  0.40625 0.0625 0  0.4375 0.0625 0  0.46875 0.0625 0  0.5 0.0625 0  0.53125 0.0625 0  0.5625 0.0625 0  0.59375 0.0625 0  0.625 0.0625 0  0.65625 0.0625 0  0.6875 0.0625 0  0.71875 0.0625 0  0.75 0.0625 0  0.78125 0.0625 0  0.8125 0.0625 0  0.84375 0.0625 0  0.875 0.0625 0  0.90625 0.0625 0  0.9375 0.0625 0  0.96875 0.0625 0  1 0.0625 0  1.03125 0.0625 0  1.0625 0.0625 0  1.09375 0.0625 0  1.125 0.0625 0  1.15625 0.0625 0  1.1875 0.0625 0  1.21875 0.0625 0  1.25 0.0625 0  1.28125 0.0625 0  1.3125 0.0625 0  1.34375 0.0625 0  1.375 0.0625 0  1.40625 0.0625 0  1.4375 0.0625 0  1.46875 0.0625 0  1.5 0.0625 0  0 0.09375 0  0.03125 0.09375 0  0.0625 0.09375 0  0.09375 0.09375 0  0.125 0.09375 0  0.15625 0.09375 0  0.1875 0.09375 0  0.21875 0.09375 0  0.25 0.09375 0  0.28125 0.09375 0  0.3125 0.09375 0  0.34375 0.09375 0  0.375 0.09375 0  0.40625 0.09375 0  0.4375 0.09375 0  0.46875 0.09375 0  0.5 0.09375 0  0.53125 0.09375 0  0.5625 0.09375 0  0.59375 0.09375 0  0.625 0.09375 0  0.65625 0.09375 0  0.6875 0.09375 0  0.71875 0.09375 0  0.75 0.09375 0  0.78125 0.09375 0  0.8125 0.09375 0  0.84375 0.09375 0  0.875 0.09375 0  0.90625 0.09375 0  0.9375 0.09375 0  0.96875 0.09375 0  1 0.09375 0  1.03125 0.09375 0  1.0625 0.09375 0  1.09375 0.09375 0  1.125 0.09375 0  1.15625 0.09375 0  1.1875 0.09375 0  1.21875 0.09375 0  1.25 0.09375 0  1.28125 0.09375 0  1.3125 0.09375 0  1.34375 0.09375 0  1.375 0.09375 0  1.40625 0.09375 0  1.4375 0.09375 0  1.46875 0.09375 0  1.5 0.09375 0  0 0.125 0  0.03125 0.125 0  0.0625 0.125 0  0.09375 0.125 0  0.125 0.125 0  0.15625 0.125 0  0.1875 0.125 0  0.21875 0.125 0  0.25 0.125 0  0.28125 0.125 0  0.3125 0.125 0  0.34375 0.125 0  0.375 0.125 0  0.40625 0.125 0  0.4375 0.125 0  0.46875 0.125 0  0.5 0.125 0  0.53125 0.125 0  0.5625 0.125 0  0.59375 0.125 0  0.625 0.125 0  0.65625 0.125 0  0.6875 0.125 0  0.71875 0.125 0  0.75 0.125 0  0.78125 0.125 0  0.8125 0.125 0  0.84375 0.125 0  0.875 0.125 0  0.90625 0.125 0  0.9375 0.125 0  0.96875 0.125 0  1 0.125 0  1.03125 0.125 0  1.0625 0.125 0  1.09375 0.125 0  1.125 0.125 0  1.15625 0.125 0  1.1875 0.125 0  1.21875 0.125 0  1.25 0.125 0  1.28125 0.125 0  1.3125 0.125 0  1.34375 0.125 0  1.375 0.125 0  1.40625 0.125 0  1.4375 0.125 0  1.46875 0.125 0  1.5 0.125 0  0 0.15625 0  0.03125 0.15625 0  0.0625 0.15625 0  0.09375 0.15625 0  0.125 0.15625 0  0.15625 0.15625 0  0.1875 0.15625 0  0.21875 0.15625 0  0.25 0.15625 0  0.28125 0.15625 0  0.3125 0.15625 0  0.34375 0.15625 0  0.375 0.15625 0  0.40625 0.15625 0  0.4375 0.15625 0  0.46875 0.15625 0  0.5 0.15625 0  0.53125 0.15625 0  0.5625 0.15625 0  0.59375 0.15625 0  0.625 0.15625 0  0.65625 0.15625 0  0.6875 0.15625 0  0.71875 0.15625 0  0.75 0.15625 0  0.78125 0.15625 0  0.8125 0.15625 0  0.84375 0.15625 0  0.875 0.15625 0  0.90625 0.15625 0  0.9375 0.15625 0  0.96875 0.15625 0  1 0.15625 0  1.03125 0.15625 0  1.0625 0.15625 0  1.09375 0.15625 0  1.125 0.15625 0  1.15625 0.15625 0  1.1875 0.15625 0  1.21875 0.15625 0  1.25 0.15625 0  1.28125 0.15625 0  1.3125 0.15625 0  1.34375 0.15625 0  1.375 0.15625 0  1.40625 0.15625 0  1.4375 0.15625 0  1.46875 0.15625 0  1.5 0.15625 0  0 0.1875 0  0.03125 0.1875 0  0.0625 0.1875 0  0.09375 0.1875 0  0.125 0.1875 0  0.15625 0.1875 0  0.1875 0.1875 0  0.21875 0.1875 0  0.25 0.1875 0  0.28125 0.1875 0  0.3125 0.1875 0  0.34375 0.1875 0  0.375 0.1875 0  0.40625 0.1875 0  0.4375 0.1875 0  0.46875 0.1875 0  0.5 0.1875 0  0.53125 0.1875 0  0.5625 0.1875 0  0.59375 0.1875 0  0.625 0.1875 0  0.65625 0.1875 0  0.6875 0.1875 0  0.71875 0.1875 0  0.75 0.1875 0  0.78125 0.1875 0  0.8125 0.1875 0  0.84375 0.1875 0  0.875 0.1875 0  0.90625 0.1875 0  0.9375 0.1875 0  0.96875 0.1875 0  1 0.1875 0  1.03125 0.1875 0  1.0625 0.1875 0  1.09375 0.1875 0  1.125 0.1875 0  1.15625 0.1875 0  1.1875 0.1875 0  1.21875 0.1875 0  1.25 0.1875 0  1.28125 0.1875 0  1.3125 0.1875 0  1.34375 0.1875 0  1.375 0.1875 0  1.40625 0.1875 0  1.4375 0.1875 0  1.46875 0.1875 0  1.5 0.1875 0  0 0.21875 0  0.03125 0.21875 0  0.0625 0.21875 0  0.09375 0.21875 0  0.125 0.21875 0  0.15625 0.21875 0  0.1875 0.21875 0  0.21875 0.21875 0  0.25 0.21875 0  0.28125 0.21875 0  0.3125 0.21875 0  0.34375 0.21875 0  0.375 0.21875 0  0.40625 0.21875 0  0.4375 0.21875 0  0.46875 0.21875 0  0.5 0.21875 0  0.53125 0.21875 0  0.5625 0.21875 0  0.59375 0.21875 0  0.625 0.21875 0  0.65625 0.21875 0  0.6875 0.21875 0  0.71875 0.21875 0  0.75 0.21875 0  0.78125 0.21875 0  0.8125 0.21875 0  0.84375 0.21875 0  0.875 0.21875 0  0.90625 0.21875 0  0.9375 0.21875 0  0.96875 0.21875 0  1 0.21875 0  1.03125 0.21875 0  1.0625 0.21875 0  1.09375 0.21875 0  1.125 0.21875 0  1.15625 0.21875 0  1.1875 0.21875 0  1.21875 0.21875 0  1.25 0.21875 0  1.28125 0.21875 0  1.3125 0.21875 0  1.34375 0.21875 0  1.375 0.21875 0  1.40625 0.21875 0  1.4375 0.21875 0  1.46875 0.21875 0  1.5 0.21875 0  0 0.25 0  0.03125 0.25 0  0.0625 0.25 0  0.09375 0.25 0  0.125 0.25 0  0.15625 0.25 0  0.1875 0.25 0  0.21875 0.25 0  0.25 0.25 0  0.28125 0.25 0  0.3125 0.25 0  0.34375 0.25 0  0.375 0.25 0  0.40625 0.25 0  0.4375 0.25 0  0.46875 0.25 0  0.5 0.25 0  0.53125 0.25 0  0.5625 0.25 0  0.59375 0.25 0  0.625 0.25 0  0.65625 0.25 0  0.6875 0.25 0  0.71875 0.25 0  0.75 0.25 0  0.78125 0.25 0  0.8125 0.25 0  0.84375 0.25 0  0.875 0.25 0  0.90625 0.25 0  0.9375 0.25 0  0.96875 0.25 0  1 0.25 0  1.03125 0.25 0  1.0625 0.25 0  1.09375 0.25 0  1.125 0.25 0  1.15625 0.25 0  1.1875 0.25 0  1.21875 0.25 0  1.25 0.25 0  1.28125 0.25 0  1.3125 0.25 0  1.34375 0.25 0  1.375 0.25 0  1.40625 0.25 0  1.4375 0.25 0  1.46875 0.25 0  1.5 0.25 0  0 0.28125 0  0.03125 0.28125 0  0.0625 0.28125 0  0.09375 0.28125 0  0.125 0.28125 0  0.15625 0.28125 0  0.1875 0.28125 0  0.21875 0.28125 0  0.25 0.28125 0  0.28125 0.28125 0  0.3125 0.28125 0  0.34375 0.28125 0  0.375 0.28125 0  0.40625 0.28125 0  0.4375 0.28125 0  0.46875 0.28125 0  0.5 0.28125 0  0.53125 0.28125 0  0.5625 0.28125 0  0.59375 0.28125 0  0.625 0.28125 0  0.65625 0.28125 0  0.6875 0.28125 0  0.71875 0.28125 0  0.75 0.28125 0  0.78125 0.28125 0  0.8125 0.28125 0  0.84375 0.28125 0  0.875 0.28125 0  0.90625 0.28125 0  0.9375 0.28125 0  0.96875 0.28125 0  1 0.28125 0  1.03125 0.28125 0  1.0625 0.28125 0  1.09375 0.28125 0  1.125 0.28125 0  1.15625 0.28125 0  1.1875 0.28125 0  1.21875 0.28125 0  1.25 0.28125 0  1.28125 0.28125 0  1.3125 0.28125 0  1.34375 0.28125 0  1.375 0.28125 0  1.40625 0.28125 0  1.4375 0.28125 0  1.46875 0.28125 0  1.5 0.28125 0  0 0.3125 0  0.03125 0.3125 0  0.0625 0.3125 0  0.09375 0.3125 0  0.125 0.3125 0  0.15625 0.3125 0  0.1875 0.3125 0  0.21875 0.3125 0  0.25 0.3125 0  0.28125 0.3125 0  0.3125 0.3125 0  0.34375 0.3125 0  0.375 0.3125 0  0.40625 0.3125 0  0.4375 0.3125 0  0.46875 0.3125 0  0.5 0.3125 0  0.53125 0.3125 0  0.5625 0.3125 0  0.59375 0.3125 0  0.625 0.3125 0  0.65625 0.3125 0  0.6875 0.3125 0  0.71875 0.3125 0  0.75 0.3125 0  0.78125 0.3125 0  0.8125 0.3125 0  0.84375 0.3125 0  0.875 0.3125 0  0.90625 0.3125 0  0.9375 0.3125 0  0.96875 0.3125 0  1 0.3125 0  1.03125 0.3125 0  1.0625 0.3125 0  1.09375 0.3125 0  1.125 0.3125 0  1.15625 0.3125 0  1.1875 0.3125 0  1.21875 0.3125 0  1.25 0.3125 0  1.28125 0.3125 0  1.3125 0.3125 0  1.34375 0.3125 0  1.375 0.3125 0  1.40625 0.3125 0  1.4375 0.3125 0  1.46875 0.3125 0  1.5 0.3125 0  0 0.34375 0  0.03125 0.34375 0  0.0625 0.34375 0  0.09375 0.34375 0  0.125 0.34375 0  0.15625 0.34375 0  0.1875 0.34375 0  0.21875 0.34375 0  0.25 0.34375 0  0.28125 0.34375 0  0.3125 0.34375 0  0.34375 0.34375 0  0.375 0.34375 0  0.40625 0.34375 0  0.4375 0.34375 0  0.46875 0.34375 0  0.5 0.34375 0  0.53125 0.34375 0  0.5625 0.34375 0  0.59375 0.34375 0  0.625 0.34375 0  0.65625 0.34375 0  0.6875 0.34375 0  0.71875 0.34375 0  0.75 0.34375 0  0.78125 0.34375 0  0.8125 0.34375 0  0.84375 0.34375 0  0.875 0.34375 0  0.90625 0.34375 0  0.9375 0.34375 0  0.96875 0.34375 0  1 0.34375 0  1.03125 0.34375 0  1.0625 0.34375 0  1.09375 0.34375 0  1.125 0.34375 0  1.15625 0.34375 0  1.1875 0.34375 0  1.21875 0.34375 0  1.25 0.34375 0  1.28125 0.34375 0  1.3125 0.34375 0  1.34375 0.34375 0  1.375 0.34375 0  1
[...]
<PointData  Vectors="f_17"> 
<DataArray  type="Float64"  Name="f_17"  NumberOfComponents="3" format="ascii">0.0000000000000000e+00 0.0000000000000000e+00 0.0000000000000000e+00  0.0000000000000000e+00 0.0000000000000000e+00 0.0000000000000000e+00  0.0000000000000000e+00 0.0000000000000000e+00 0.0000000000000000e+00  0.0000000000000000e+00 0.0000000000000000e+00 0.0000000000000000e+00  0.0000000000000000e+00 0.0000000000000000e+00 0.0000000000000000e+00  0.0000000000000000e+00 0.0000000000000000e+00 0.0000000000000000e+00  0.0000000000000000e+00 0.0000000000000000e+00 0.0000000000000000e+00  0.0000000000000000e+00 0.0000000000000000e+00 0.0000000000000000e+00  0.0000000000000000e+00 0.0000000000000000e+00 0.0000000000000000e+00  0.0000000000000000e+00 0.0000000000000000e+00 0.0000000000000000e+00  0.0000000000000000e+00 0.0000000000000000e+00 0.0000000000000000e+00  0.0000000000000000e+00 0.0000000000000000e+00 0.0000000000000000e+00  0.0000000000000000e+00 0.0000000000000000e+00 0.0000000000000000e+00  0.0000000000000000e+00 0.0000000000000000e+00 0.0000000000000000e+00  0.0000000000000000e+00 0.0000000000000000e+00 0.0000000000000000e+00  0.0000000000000000e+00 0.0000000000000000e+00 0.0000000000000000e+00  0.0000000000000000e+00 0.0000000000000000e+00 0.0000000000000000e+00  0.0000000000000000e+00 0.0000000000000000e+00 0.0000000000000000e+00  0.0000000000000000e+00 0.0000000000000000e+00 0.0000000000000000e+00  0.0000000000000000e+00 0.0000000000000000e+00 0.0000000000000000e+00  0.0000000000000000e+00 0.0000000000000000e+00 0.0000000000000000e+00  0.0000000000000000e+00 0.0000000000000000e+00 0.0000000000000000e+00  0.0000000000000000e+00 0.0000000000000000e+00 0.0000000000000000e+00  0.0000000000000000e+00 0.0000000000000000e+00 0.0000000000000000e+00  0.0000000000000000e+00 0.0000000000000000e+00 0.0000000000000000e+00  0.0000000000000000e+00 0.0000000000000000e+00 0.0000000000000000e+00  0.0000000000000000e+00 0.0000000000000000e+00 0.0000000000000000e+00  0.0000000000000000e+00 0.0000000000000000e+00 0.0000000000000000e+00  0.0000000000000000e+00 0.0000000000000000e+00 0.0000000000000000e+00  0.0000000000000000e+00 0.0000000000000000e+00 0.0000000000000000e+00  0.0000000000000000e+00 0.0000000000000000e+00 0.0000000000000000e+00  0.0000000000000000e+00 0.0000000000000000e+00 0.0000000000000000e+00  0.0000000000000000e+00 0.0000000000000000e+00 0.0000000000000000e+00  0.0000000000000000e+00 0.0000000000000000e+00 0.0000000000000000e+00  0.0000000000000000e+00 0.0000000000000000e+00 0.0000000000000000e+00  0.0000000000000000e+00 0.0000000000000000e+00 0.0000000000000000e+00  0.0000000000000000e+00 0.0000000000000000e+00 0.0000000000000000e+00  0.0000000000000000e+00 0.0000000000000000e+00 0.0000000000000000e+00  0.0000000000000000e+00 0.0000000000000000e+00 0.0000000000000000e+00  0.0000000000000000e+00 0.0000000000000000e+00 0.0000000000000000e+00  0.0000000000000000e+00 0.0000000000000000e+00 0.0000000000000000e+00  0.0000000000000000e+00 0.0000000000000000e+00 0.0000000000000000e+00  0.0000000000000000e+00 0.0000000000000000e+00 0.0000000000000000e+00  0.0000000000000000e+00 0.0000000000000000e+00 0.0000000000000000e+00  0.0000000000000000e+00 0.0000000000000000e+00 0.0000000000000000e+00  0.0000000000000000e+00 0.0000000000000000e+00 0.0000000000000000e+00  0.0000000000000000e+00 0.0000000000000000e+00 0.0000000000000000e+00  0.0000000000000000e+00 0.0000000000000000e+00 0.0000000000000000e+00  0.0000000000000000e+00 0.0000000000000000e+00 0.0000000000000000e+00  0.0000000000000000e+00 0.0000000000000000e+00 0.0000000000000000e+00  1.2976280932199076e-08 7.2397802456258723e-09 0.0000000000000000e+00  -1.1877105378753932e-07 1.0442055660812402e-07 0.0000000000000000e+00  -5.3349728380703634e-08 -1.9935826791386752e-08 0.0000000000000000e+00  -2.5066938905995729e-07 -5.5695084732962488e-08 0.0000000000000000e+00  -2.3841114013133850e-07 -8.2345497736167085e-08 0.0000000000000000e+00  -2.2793867591606650e-07 -8.6304301186164325e-08 0.0000000000000000e+00  -2.2060244652817148e-07 -7.8017127903735226e-08 0.0000000000000000e+00  -2.0249587414303814e-07 -6.7428828103562827e-08 0.0000000000000000e+00  -1.8577149689807444e-07 -5.6045637177267847e-08 0.0000000000000000e+00  -1.7066430748498356e-07 -4.4970341365984306e-08 0.0000000000000000e+00  -1.5842969729154377e-07 -3.4545283428573019e-08 0.0000000000000000e+00  -1.5025376898317422e-07 -2.4782907829646045e-08 0.0000000000000000e+00  -1.4653838362458653e-07 -1.5660638542313371e-08 0.0000000000000000e+00  -1.4759581264217843e-07 -7.1113601513720798e-09 0.0000000000000000e+00  -1.5360051161257237e-07 9.5122974626184607e-10 0.0000000000000000e+00  -1.6464731700279022e-07 8.6120823418007941e-09 0.0000000000000000e+00  -1.8079229964798107e-07 1.5930400334509490e-08 0.0000000000000000e+00  -2.0204018113209182e-07 2.2908815211660994e-08 0.0000000000000000e+00  -2.2830689868790334e-07 2.9463651545438588e-08 0.0000000000000000e+00  -2.5935376159893497e-07 3.5406181007639014e-08 0.0000000000000000e+00  -2.9470687483117391e-07 4.0445230917943108e-08 0.0000000000000000e+00  -3.3358540302654369e-07 4.4217718834474488e-08 0.0000000000000000e+00  -3.7486127449429050e-07 4.6345197984373122e-08 0.0000000000000000e+00  -4.1707625527421484e-07 4.6504436462634444e-08 0.0000000000000000e+00  -4.5851351789379594e-07 4.4493239532626196e-08 0.0000000000000000e+00  -4.9733438906658929e-07 4.0271861827748572e-08 0.0000000000000000e+00  -5.3171061382856603e-07 3.3970593801017650e-08 0.0000000000000000e+00  -5.6000892990239939e-07 2.5858377493884427e-08 0.0000000000000000e+00  -5.8081432085375105e-07 1.6297229816009840e-08 0.0000000000000000e+00  -5.9315950558822516e-07 5.6647083274353089e-09 0.0000000000000000e+00  -5.9616749527634899e-07 -5.6588045420220822e-09 0.0000000000000000e+00  -5.8976317747834957e-07 -1.7419265052154909e-08 0.0000000000000000e+00  -5.7306393749701724e-07 -2.9288661965773820e-08 0.0000000000000000e+00  -5.4753220043007385e-07 -4.1349199443139569e-08 0.0000000000000000e+00  -5.1026342513351071e-07 -5.2976033358876965e-08 0.0000000000000000e+00  -4.6771923696312966e-07 -6.5259680358608174e-08 0.0000000000000000e+00  -4.0727613568197485e-07 -7.5546699588061744e-08 0.0000000000000000e+00  -3.5576352499391998e-07 -8.9287996893718793e-08 0.0000000000000000e+00  -2.5927550362787532e-07 -9.4061690328450445e-08 0.0000000000000000e+00  -2.2902811968028113e-07 -1.1533183092253667e-07 0.0000000000000000e+00  -4.1179951814486768e-08 -9.6615107726223682e-08 0.0000000000000000e+00  -1.5004997074210843e-07 -1.5222952462094638e-07 0.0000000000000000e+00  3.4539179760628178e-07 -3.6130124004083777e-08 0.0000000000000000e+00  -3.8102606476197499e-07 -2.4344978776407888e-07 0.0000000000000000e+00  1.1484058182954474e-06 2.3094731453055598e-07 0.0000000000000000e+00  -2.4272625535391725e-06 -7.5269389632897531e-07 0.0000000000000000e+00  2.6867123989124844e-06 1.3705458115811467e-06 0.0000000000000000e+00  0.0000000000000000e+00 0.0000000000000000e+00 0.0000000000000000e+00  0.0000000000000000e+00 0.0000000000000000e+00 0.0000000000000000e+00  -1.2583636973716552e-06 6.6664531786066929e-07 0.0000000000000000e+00  7.8643273269306104e-07 -3.9256494317306201e-08 0.0000000000000000e+00  -9.7335062338353787e-08 9.4068061089042991e-08 0.0000000000000000e+00  -2.6785435272253368e-07 -2.4412874849136677e-08 0.0000000000000000e+00  -2.8131092156570708e-07 -7.5778370532608769e-08 0.0000000000000000e+00  -3.3767393878595274e-07 -9.6604178937079015e-08 0.0000000000000000e+00  -3.3526253964426977e-07 -1.0025548202288058e-07 0.0000000000000000e+00  -3.2345536257528315e-07 -9.4845139250046007e-08 0.0000000000000000e+00  -3.0804677467677684e-07 -8.4393805719035034e-08 0.0000000000000000e+00  -2.9030341006313792e-07 -7.1434796508798324e-08 0.0000000000000000e+00  -2.7475581488315103e-07 -5.7195177741725428e-08 0.0000000000000000e+00  -2.6254404734538423e-07 -4.2404075249935158e-08 0.0000000000000000e+00  -2.5457655640681007e-07 -2.7501461632670035e-08 0.0000000000000000e+00  -2.5143739365656303e-07 -1.2724686340184865e-08 0.0000000000000000e+00  -2.5339618010597393e-07 1.8169644458013810e-09 0.0000000000000000e+00  -2.6060849848995144e-07 1.6084087934385270e-08 0.0000000000000000e+00  -2.7313835660907676e-07 3.0044464941058822e-08 0.0000000000000000e+00  -2.9097437654993329e-07 4.3600517196970970e-08 0.0000000000000000e+00  -3.1400402644917784e-07 5.6517854842949444e-08 0.0000000000000000e+00  -3.4194592943309993e-07 6.8373502649142196e-08 0.0000000000000000e+00  -3.7425917862268531e-07 7.8546487886554089e-08 0.0000000000000000e+00  -4.1005697938568222e-07 8.6268046348066574e-08 0.0000000000000000e+00  -4.4805721428336683e-07 9.0731200834559558e-08 0.0000000000000000e+00  -4.8660648128609409e-07 9.1236487846326896e-08 0.0000000000000000e+00  -5.2377699017783736e-07 8.7333169007137652e-08 0.0000000000000000e+00  -5.5754528569008929e-07 7.8912136185489802e-08 0.0000000000000000e+00  -5.8596426472576138e-07 6.6225601472814316e-08 0.0000000000000000e+00  -6.0738280646529298e-07 4.9826802999594569e-08 0.0000000000000000e+00  -6.2046819665206319e-07 3.0467945758007241e-08 0.0000000000000000e+00  -6.2444055381782285e-07 8.9561787407577464e-09 0.0000000000000000e+00  -6.1865624092244765e-07 -1.3914536662283031e-08 0.0000000000000000e+00  -6.0335061136595085e-07 -3.7529668066041213e-08 0.0000000000000000e+00  -5.7789762287603034e-07 -6.1266093914735080e-08 0.0000000000000000e+00  -5.4414772368609564e-07 -8.4959993712372194e-08 0.0000000000000000e+00  -4.9938027430459755e-07 -1.0779528752344883e-07 0.0000000000000000e+00  -4.5063478349153173e-07 -1.3059406550927865e-07 0.0000000000000000e+00  -3.8533964654226003e-07 -1.5059145681903013e-07 0.0000000000000000e+00  -3.3136183625271023e-07 -1.7249993286809485e-07 0.0000000000000000e+00  -2.3481127150158994e-07 -1.8432821791175548e-07 0.0000000000000000e+00  -2.0842038322366476e-07 -2.0855955448357030e-07 0.0000000000000000e+00  -2.9744013260657534e-08 -1.9294872833249760e-07 0.0000000000000000e+00  -1.5289016727616436e-07 -2.3926003015162132e-07 0.0000000000000000e+00  3.1195323263877831e-07 -1.2671801143540953e-07 0.0000000000000000e+00  -4.4052268156139969e-07 -2.9912776373891554e-07 0.0000000000000000e+00  9.7467762514563207e-07 1.4042722544695209e-07 0.0000000000000000e+00  -2.4518259831559298e-06 -6.2205791317334323e-07 0.0000000000000000e+00  2.6450497668121377e-06 1.4061119257369288e-06 0.0000000000000000e+00  0.0000000000000000e+00 0.0000000000000000e+00 0.0000000000000000e+00  0.0000000000000000e+00 0.0000000000000000e+00 0.0000000000000000e+00  -2.3103509054488868e-06 1.1400809131816005e-06 0.0000000000000000e+00  1.7374373117401042e-06 -1.4149518677068425e-07 0.0000000000000000e+00  -3.5957207847804528e-07 2.5084692533130864e-07 0.0000000000000000e+00  1.6100825549796384e-08 -4.5916556882177793e-09 0.0000000000000000e+00  -1.3037361578764038e-07 -3.3740371069355652e-08 0.0000000000000000e+00  -1.8716555466154667e-07 -8.3344933857980469e-08 0.0000000000000000e+00  -2.0303093863199765e-07 -9.9382616046467335e-08 0.0000000000000000e+00  -2.2921111755619450e-07 -1.0146140582521305e-07 0.0000000000000000e+00  -2.4035098236600094e-07 -9.4213554219745475e-08 0.0000000000000000e+00  -2.4694657535199046e-07 -8.1369954160349331e-08 0.0000000000000000e+00  -2.5126374734353494e-07 -6.5349080213375683e-08 0.0000000000000000e+00  -2.5445915017455253e-07 -4.7601518280583830e-08 0.0000000000000000e+00  -2.5830829840135514e-07 -2.9047025208461681e-08 0.0000000000000000e+00  -2.6369725348898746e-07 -1.0230193632169952e-08 0.0000000000000000e+00  -2.7130121871056516e-07 8.5530235398959365e-09 0.0000000000000000e+00  -2.8160092855573891e-07 2.7161093200267623e-08 0.0000000000000000e+00  -2.9492408524206936e-07 4.5508287095842150e-08 0.0000000000000000e+00  -3.1150176372079353e-07 6.3449681200964440e-08 0.0000000000000000e+00  -3.3145069175279109e-07 8.0662472036068439e-08 0.0000000000000000e+00  -3.5471275937137300e-07 9.6550083686030762e-08 0.0000000000000000e+00  -3.8095547809612029e-07 1.1020967594234868e-07 0.0000000000000000e+00  -4.0946818140394603e-07 1.2049768896866739e-07 0.0000000000000000e+00  -4.3910099087078253e-07 1.2619920859942843e-07 0.0000000000000000e+00  -4.6829826410056773e-07 1.2626423007787230e-07 0.0000000000000000e+00  -4.9523168582492686e-07 1.2003923434326742e-07 0.0000000000000000e+00  -5.1803467800555936e-07 1.0741617891520590e-07 0.0000000000000000e+00  -5.3502503629428808e-07 8.8854221703463355e-08 0.0000000000000000e+00  -5.4495447641495859e-07 6.5270020965665756e-08 0.0000000000000000e+00  -5.4701661807429659e-07 3.7857664830000140e-08 0.0000000000000000e+00  -5.4105377140966146e-07 7.8642985397618931e-09 0.0000000000000000e+00  -5.2706644092269228e-07 -2.3534309152595434e-08 0.0000000000000000e+00  -5.0595133752848565e-07 -5.5430862260517282e-08 0.0000000000000000e+00  -4.7765221644216156e-07 -8.6989124856496792e-08 0.0000000000000000e+00  -4.4463931372520175e-07 -1.1790020472976934e-07 0.0000000000000000e+00  -4.0459655895474893e-07 -1.4721829239051704e-07 0.0000000000000000e+00  -3.6526522942544807e-07 -1.7563073147617307e-07 0.0000000000000000e+00  -3.1423595614300069e-07 -2.0020549370640449e-07 0.0000000000000000e+00  -2.8042925624821441e-07 -2.2529905588273086e-07 0.0000000000000000e+00  -2.0971967296520598e-07 -2.3890006178451849e-07 0.0000000000000000e+00  -2.1610302231297567e-07 -2.6217948082793707e-07 0.0000000000000000e+00  -7.7449609752652069e-08 -2.4536300308113253e-07 0.0000000000000000e+00  -2.4424092477519903e-07 -2.8401901209997995e-07 0.0000000000000000e+00  1.6136263772531081e-07 -1.7668808669615681e-07 0.0000000000000000e+00  -6.2435822030095151e-07 -3.2984680803553962e-07 0.0000000000000000e+00  7.0530917830170550e-07 5.8109270536689175e-08 0.0000000000000000e+00  -2.6450072601617835e-06 -5.9128674253489626e-07 0.0000000000000000e+00  2.2711476096122426e-06 1.1797764771711111e-06 0.0000000000000000e+00  0.0000000000000000e+00 0.0000000000000000e+00 0.0000000000000000e+00  0.0000000000000000e+00 0.0000000000000000e+00 0.0000000000000000e+00  -2.5664728104689070e-06 1.1875328694455209e-06 0.0000000000000000e+00  2.3476952338468377e-06 -1.7217418658059741e-07 0.0000000000000000e+00  -6.6245041602558646e-07 3.3010597326857015e-07 0.0000000000000000e+00  2.8189204924876560e-07 5.8398881710233210e-09 0.0000000000000000e+00  -1.4895695226089680e-07 3.5419613262406785e-08 0.0000000000000000e+00  -9.2865171376938175e-08 -4.5291333543565674e-08 0.0000000000000000e+00  -1.4074206481003473e-07 -6.4486541512016239e-08 0.0000000000000000e+00  -1.7570360653900158e-07 -7.8801828060304290e-08 0.0000000000000000e+00  -1.9574165753715638e-07 -7.8751966568151067e-08 0.0000000000000000e+00  -2.1513298202095971e-07 -7.0987276121362399e-08 0.0000000000000000e+00  -2.2920549954375291e-07 -5.7803574759632431e-08 0.0000000000000000e+00  -2.4093450537524561e-07 -4.1180898259700822e-08 0.0000000000000000e+00  -2.5155142880025014e-07 -2.2518286222358482e-08 0.0000000000000000e+00  -2.6184566903152047e-07 -2.7126081942158238e-09 0.0000000000000000e+00  -2.7261454523696093e-07 1.7667013345022707e-08 0.0000000000000000e+00  -2.8437311830586802e-07 3.8304710400907594e-08 0.0000000000000000e+00  -2.9753870245966303e-07 5.9010148897175092e-08 0.0000000000000000e+00  -3.1245921161311514e-07 7.9567229654414635e-08 0.0000000000000000e+00  -3.2940470107389656e-07 9.9559133669629405e-08 0.0000000000000000e+00  -3.4850312475789060e-07 1.1820856504847725e-07 0.0000000000000000e+00  -3.6960807740697768e-07 1.3430188458426086e-07 0.0000000000000000e+00  -3.9214937158626006e-07 1.4626319426102517e-07 0.0000000000000000e+00  -4.1503522491053578e-07 1.5240049723785680e-07 0.0000000000000000e+00  -4.3668863827219797e-07 1.5126836266244654e-07 0.0000000000000000e+00  -4.5523522956382229e-07 1.4202487187924864e-07 0.0000000000000000e+00  -4.6883118449011746e-07 1.2464926678553630e-07 0.0000000000000000e+00  -4.7597022622692740e-07 9.9947028183621083e-08 0.0000000000000000e+00  -4.7578085742000597e-07 6.9351003506732320e-08 0.0000000000000000e+00  -4.6800083482674324e-07 3.4621154962063832e-08 0.0000000000000000e+00  -4.5313715346048469e-07 -2.4851929346027400e-09 0.0000000000000000e+00  -4.3184169361719832e-07 -4.0400038626127883e-08 0.0000000000000000e+00  -4.0566537816570524e-07 -7.7953708820151269e-08 0.0000000000000000e+00  -3.7498920509348711e-07 -1.1415549839239709e-07 0.0000000000000000e+00  -3.4282694278936258e-07 -1.4859657746598823e-07 0.0000000000000000e+00  -3.0686694771825920e-07 -1.8026594051140260e-07 0.0000000000000000e+00  -2.7556507853241856e-07 -2.0970799386118312e-07 0.0000000000000000e+00  -2.3559183464451694e-07 -2.3394914371110585e-07 0.0000000000000000e+00  -2.1768947994045441e-07 -2.5690670044472881e-07 0.0000000000000000e+00  -1.6408141046398787e-07 -2.6704844045773582e-07 0.0000000000000000e+00  -1.9446834687863829e-07 -2.8405635872336274e-07 0.0000000000000000e+00  -7.4605603444601548e-08 -2.6213089056730914e-07 0.0000000000000000e+00  -2.7261204278918346e-07 -2.9023276995797966e-07 0.0000000000000000e+00  1.2499114341838769e-07 -1.8726531014137736e-07 0.0000000000000000e+00  -6.9367223542379080e-07 -3.2314043849898432e-07 0.0000000000000000e+00  6.5934046474562448e-07 1.8830007946057699e-08 0.0000000000000000e+00  -2.6932666822019311e-06 -5.5185977018317588e-07 0.0000000000000000e+00  2.2571571332073685e-06 1.0128004430525081e-06 0.0000000000000000e+00  0.0000000000000000e+00 0.0000000000000000e+00 0.0000000000000000e+00  0.0000000000000000e+00 0.0000000000000000e+00 0.0000000000000000e+00  -2.5167513553529201e-06 1.0826488178914941e-06 0.0000000000000000e+00  2.5925653445892266e-06 -1.5292704563833317e-07 0.0000000000000000e+00  -8.0299784317648026e-07 3.3281846545809620e-07 0.0000000000000000e+00  4.9284658177445171e-07 1.8400812237433142e-08 0.0000000000000000e+00  -1.9616038418108899e-07 8.9099750978381820e-08 0.0000000000000000e+00  2.0297501013229464e-08 -1.0180538693289248e-08 0.0000000000000000e+00  -9.3057430163507040e-08 -2.2707901070130591e-08 0.0000000000000000e+00  -1.0786299556089918e-07 -4.8251792901726997e-08 0.0000000000000000e+00  -1.3861797181910784e-07 -5.2863152411669061e-08 0.0000000000000000e+00  -1.6568047459629739e-07 -5.0696803133602077e-08 0.0000000000000000e+00  -1.8682616449023373e-07 -4.1098180733455828e-08 0.0000000000000000e+00  -2.0601110130824291e-07 -2.6906967424477836e-08 0.0000000000000000e+00  -2.2271747585159041e-07 -9.6117628256132729e-09 0.0000000000000000e+00  -2.3798544273215022e-07 9.6188061934304483e-09 0.0000000000000000e+00  -2.5244352875106638e-07 2.9999419881183106e-08 0.0000000000000000e+00  -2.6655192103620737e-07 5.1080254065555321e-08 0.0000000000000000e+00  -2.8076040660773859e-07 7.2606180262533772e-08 0.0000000000000000e+00  -2.9548457640145463e-07 9.4349473738525990e-08 0.0000000000000000e+00  -3.1113828683863329e-07 1.1586651901144341e-07 0.0000000000000000e+00  -3.2804973525605925e-07 1.3624633187730548e-07 0.0000000000000000e+00  -3.4627748031325753e-07 1.5395504444481756e-07 0.0000000000000000e+00  -3.6537940278590825e-07 1.6690393966290213e-07 0.0000000000000000e+00  -3.8424336462357621e-07 1.7280277152020365e-07 0.0000000000000000e+00  -4.0112036910780781e-07 1.6971696310533562e-07 0.0000000000000000e+00  -4.1390390868330223e-07 1.5661732909855690e-07 0.0000000000000000e+00  -4.2061591956452526e-07 1.3368982273362851e-07 0.0000000000000000e+00  -4.1985439082691431e-07 1.0228927782439136e-07 0.0000000000000000e+00  -4.1115081743926226e-07 6.4579991446024555e-08 0.0000000000000000e+00  -3.9488142650007934e-07 2.3046283394658806e-08 0.0000000000000000e+00  -3.7231929621617125e-07 -1.9981623494772563e-08 0.0000000000000000e+00  -3.4483668409012245e-07 -6.2576045540117343e-08 0.0000000000000000e+00  -3.1462747215709623e-07 -1.0340872176416400e-07 0.0000000000000000e+00  -2.8245689100673243e-07 -1.4147212116492324e-07 0.0000000000000000e+00  -2.5171040405205013e-07 -1.764084933181096